ITEM: TIMESTEP
0
ITEM: NUMBER OF ATOMS
6855
ITEM: BOX BOUNDS pp pp pp
0 2
0 2
0 2
ITEM: ATOMS id type type x y z ix iy iz vx vy vz fx fy fz omegax omegay omegaz radius 
5723 1 1 1.5089 0.0511616 0.0546036 0 0 0 -0.0500057 0.00573635 0.0149877 0 0 0 0.311394 -0.648442 -1.53163 0.05 
57 1 1 0.297917 0.0550427 0.0515177 0 0 0 -0.0530369 -0.0047808 -0.0172183 0 0 0 -0.644287 0.197592 0.761779 0.05 
64 1 1 1.76555 0.076336 0.0579416 0 0 0 -0.0100313 -0.0168371 0.0199716 0 0 0 0.245905 -0.228322 0.0345657 0.05 
3468 1 1 1.8814 0.0620503 0.0531689 0 0 0 -0.00981706 -0.0122762 0.00480805 0 0 0 -0.00468822 -0.54685 -2.16544 0.05 
2299 1 1 1.4317 0.118637 0.0563412 0 0 0 -0.0517572 -0.015545 0.0104188 0 0 0 0.1274 -0.0879004 0.422782 0.05 
3442 1 1 1.53054 0.164528 0.0511966 0 0 0 -0.0425793 0.0102158 0.000974179 0 0 0 -0.353843 -0.489062 -0.433248 0.05 
3446 1 1 1.948 0.137927 0.0507706 0 0 0 0.00222837 -0.0216214 -0.000142859 0 0 0 0.28262 -0.00535021 0.256542 0.05 
4578 1 1 0.36006 0.212158 0.0535164 0 0 0 -0.00274654 -0.000741319 0.0110882 0 0 0 0.0981438 -0.0877089 -0.0253345 0.05 
1212 1 1 1.41172 0.216587 0.0509509 0 0 0 -0.0364949 0.00255454 0.017566 0 0 0 0.18991 -0.639254 -0.710415 0.05 
5775 1 1 1.71093 0.188824 0.0511098 0 0 0 -0.00745739 -0.012128 -0.00548583 0 0 0 0.188352 -0.0344025 0.0755143 0.05 
4657 1 1 0.0838945 0.269431 0.0539067 0 0 0 -0.00181329 0.0122547 -0.00257078 0 0 0 -0.638794 0.384807 -0.151578 0.05 
1156 1 1 1.09209 0.253724 0.0524399 0 0 0 -0.0163617 -0.0101469 0.0112811 0 0 0 0.26272 -0.374396 0.214413 0.05 
4612 1 1 1.59358 0.262203 0.0525762 0 0 0 -0.0178375 -0.0111962 0.00390368 0.053049 -0.217063 -0.090066 0.199727 -0.399701 0.221043 0.05 
2303 1 1 1.79538 0.248848 0.0538806 0 0 0 -0.012462 -0.00686741 1.03435e-05 0 0 0 0.275394 -0.112062 -0.189052 0.05 
5731 1 1 1.90566 0.228784 0.054074 0 0 0 -0.00276303 -0.0209523 0.00415863 0 0 0 0.246786 -0.110788 -0.227645 0.05 
3439 1 1 0.610039 0.322831 0.0554723 0 0 0 -0.0264766 -0.00620343 0.000211092 0 0 0 -0.0110304 -0.328766 0.13182 0.05 
1181 1 1 0.946544 0.3081 0.0504346 0 0 0 -0.0289348 -0.00494922 -0.00355839 0 0 0 -0.0445872 -0.177187 -0.122664 0.05 
3473 1 1 1.46912 0.304691 0.0508385 0 0 0 -0.0100885 -0.0129037 0.00357521 -0.0152839 -0.00348199 -0.0837736 -0.0645651 -0.319808 -0.0392969 0.05 
4713 1 1 0.160438 0.36723 0.0565136 0 0 0 -0.00264931 0.0191496 0.0130995 0 0 0 -0.399198 0.0805154 -0.271778 0.05 
1232 1 1 0.333133 0.371054 0.054018 0 0 0 -0.00810868 0.0233207 0.0157784 0 0 0 -0.380975 -0.0957531 -0.159027 0.05 
1160 1 1 1.15848 0.344652 0.0554498 0 0 0 -0.0216086 -0.0155587 0.000550889 0 0 0 0.0085954 -0.503246 0.0664408 0.05 
4592 1 1 1.32577 0.346743 0.0512399 0 0 0 -0.0202504 -0.0131847 -0.000898052 0 0 0 0.100853 -0.356624 -0.112936 0.05 
3453 1 1 1.55589 0.354809 0.0511071 0 0 0 -0.0179671 -0.0162137 -0.00326074 -0.053049 0.217063 0.090066 0.232639 -0.204482 -0.281396 0.05 
2332 1 1 1.85053 0.334822 0.050581 0 0 0 -0.00192989 -0.0165234 -0.000167157 0 0 0 0.292317 -0.0591819 -0.497639 0.05 
35 1 1 0.0656092 0.431038 0.0533162 0 0 0 -0.00210902 0.0326538 -0.00412495 0 0 0 0.413373 -0.368135 0.402516 0.05 
2325 1 1 1.00641 0.397451 0.0523782 0 0 0 -0.0163673 -0.00849922 0.00115195 0 0 0 0.00870814 -0.256932 -0.093923 0.05 
4590 1 1 1.23705 0.429985 0.0525728 0 0 0 -0.0254821 0.00388806 -0.00692443 0 0 0 0.204935 0.0101598 0.349405 0.05 
2310 1 1 1.41753 0.391512 0.0500126 0 0 0 -0.0226584 -0.00169879 0.00126431 0 0 0 0.170863 -0.347499 0.185309 0.05 
1172 1 1 1.66833 0.404273 0.0516157 0 0 0 -0.0112329 -0.0131188 -0.00610933 0 0 0 0.294763 -0.110153 -0.0205185 0.05 
3475 1 1 1.94848 0.420489 0.0505531 0 0 0 0.000446183 -0.0186427 -0.00282148 0 0 0 0.337078 0.0370111 -0.2597 0.05 
5753 1 1 0.95815 0.497295 0.0508112 0 0 0 -0.0215424 -0.00152073 0.000749472 0 0 0 0.02631 -0.0485194 -0.096455 0.05 
1165 1 1 1.33643 0.453216 0.0534623 0 0 0 -0.015146 -0.0133392 0.00268058 0 0 0 0.0455778 -0.0356325 0.0338723 0.05 
2315 1 1 1.85525 0.460256 0.0518452 0 0 0 -0.00173811 -0.0107019 0.00262512 0 0 0 0.198689 -0.0366778 0.0786385 0.05 
2296 1 1 0.659922 0.5289 0.0519035 0 0 0 -0.0085655 0.00268121 0.00753633 0 0 0 0.00526029 -0.0730792 -0.128237 0.05 
1158 1 1 0.856499 0.508987 0.0528857 0 0 0 -0.0187556 -0.00288677 -0.000415377 0 0 0 -0.14002 0.119682 -0.0327689 0.05 
4589 1 1 1.05634 0.519985 0.0506149 0 0 0 -0.0159558 -0.00412566 0.00465986 0 0 0 0.0790122 -0.375202 0.0235972 0.05 
2330 1 1 1.172 0.528541 0.0504671 0 0 0 -0.0258546 -0.000686468 -0.00887092 0 0 0 -0.0709229 -0.154679 -0.11778 0.05 
1167 1 1 1.27529 0.538608 0.0503178 0 0 0 -0.0167217 -0.0107417 0.00362962 0 0 0 0.189952 -0.231713 -0.0356192 0.05 
26 1 1 1.43341 0.505946 0.0514126 0 0 0 -0.0160718 -0.0118603 0.0071375 0 0 0 0.351967 -0.345742 -0.0955757 0.05 
3459 1 1 1.57399 0.526999 0.0510459 0 0 0 -0.010875 -0.0166587 0.00192547 0 0 0 0.246404 -0.201899 0.161895 0.05 
5765 1 1 0.445469 0.590226 0.051092 0 0 0 0.00516933 0.0161395 0.00268727 0 0 0 -0.221007 0.176174 -0.268017 0.05 
5721 1 1 0.563521 0.560609 0.0515804 0 0 0 -0.0203602 0.00580569 -8.46944e-05 0 0 0 0.00120134 0.0675537 0.110571 0.05 
4611 1 1 0.922121 0.595796 0.050232 0 0 0 -0.0205535 -0.00448997 -0.00193587 0 0 0 0.0475567 -0.158401 -0.0686762 0.05 
4618 1 1 1.68933 0.553133 0.050358 0 0 0 -0.00366019 -0.015456 -0.00211837 0 0 0 0.156042 0.116202 -0.15058 0.05 
48 1 1 1.80524 0.552739 0.0512337 0 0 0 -0.00349854 -0.0175019 5.17933e-05 0 0 0 0.169855 -0.281048 -0.137189 0.05 
5920 1 1 0.247069 0.625438 0.0519243 0 0 0 0.00750718 0.0182374 0.00766241 0 0 0 -0.190695 0.215309 0.234074 0.05 
3434 1 1 0.590611 0.667982 0.0514381 0 0 0 -0.013433 0.0268438 -0.00325753 0 0 0 0.0895681 0.0477364 -0.066027 0.05 
4579 1 1 0.691088 0.626408 0.0514899 0 0 0 -0.0119596 0.00490827 0.00265422 0 0 0 -0.0713648 -0.206558 -0.0990298 0.05 
43 1 1 1.21521 0.618752 0.0501084 0 0 0 -0.0159684 -0.0111082 -0.00127269 0 0 0 0.148705 -0.151852 -0.0774821 0.05 
5738 1 1 1.31243 0.645094 0.05353 0 0 0 -0.0164396 -0.00939652 0.00595273 0 0 0 0.10816 -0.201586 -0.0798448 0.05 
5741 1 1 1.41818 0.655372 0.050358 0 0 0 -0.0154107 -0.0201487 -0.00549231 0 0 0 0.0530336 -0.0471823 -0.0552164 0.05 
5745 1 1 1.74728 0.634679 0.0504582 0 0 0 -0.00220402 -0.0149771 -0.000694423 0 0 0 -0.022645 -0.116543 0.149713 0.05 
2397 1 1 1.84854 0.643377 0.0501338 0 0 0 -0.00166795 -0.0120932 -0.00194149 0 0 0 0.133629 0.0886918 -0.0287824 0.05 
2320 1 1 0.138769 0.705735 0.0530106 0 0 0 -0.000884621 0.00660853 0.00833522 0 0 0 -0.263375 0.0583039 -0.139896 0.05 
143 1 1 0.290558 0.715639 0.0500839 0 0 0 -0.00239588 0.0133251 -0.00178474 0 0 0 0.021264 -0.0846194 -0.0985895 0.05 
4582 1 1 0.790371 0.710527 0.0500666 0 0 0 -0.00875738 0.00463205 0.00260672 0 0 0 -0.0817205 -0.167795 0.00831432 0.05 
17 1 1 0.991654 0.672211 0.0552277 0 0 0 -0.0169693 0.000612126 -0.00583363 0 0 0 -0.0362723 -0.204068 -0.147939 0.05 
3448 1 1 1.14902 0.693956 0.0510953 0 0 0 -0.0133218 -0.00882894 0.000131746 0 0 0 0.0588554 -0.130475 -0.00789825 0.05 
4651 1 1 1.51399 0.684637 0.0513599 0 0 0 -0.00993523 -0.0196249 0.00355177 0 0 0 0.115663 -0.0513018 0.041553 0.05 
1253 1 1 1.94367 0.707018 0.0501757 0 0 0 -0.00279007 -0.022361 -0.00154505 0 0 0 0.293071 -0.0505835 -0.0171445 0.05 
2370 1 1 0.209619 0.779864 0.054523 0 0 0 0.00788964 0.0243012 -0.00917079 0 0 0 -0.125048 -0.0544783 0.0491565 0.05 
5715 1 1 0.532159 0.750435 0.0533969 0 0 0 -0.00691388 0.0194109 0.00306517 0 0 0 -0.24516 0.0256381 -0.130347 0.05 
4634 1 1 0.970425 0.771656 0.050572 0 0 0 -0.00723054 -0.00751826 0.00091189 0 0 0 0.0253719 0.0154366 -0.064089 0.05 
2307 1 1 1.23439 0.747646 0.053964 0 0 0 -0.0088568 -0.0153217 -0.00213079 0 0 0 -0.0431042 0.0906853 -0.0141356 0.05 
4596 1 1 1.33468 0.743646 0.0505489 0 0 0 -0.00937752 -0.0101252 -0.00159873 0 0 0 0.142058 -0.158514 -0.175089 0.05 
2318 1 1 1.43567 0.76258 0.0518508 0 0 0 -0.00688549 -0.0113653 0.00813609 0 0 0 0.294614 -0.20775 -0.047435 0.05 
3510 1 1 1.74462 0.736709 0.0533293 0 0 0 -0.00440185 -0.0109214 0.00172758 0 0 0 0.0287352 -0.0227163 -0.171765 0.05 
1176 1 1 1.84633 0.744713 0.050132 0 0 0 0.00127106 -0.0149978 0.00422198 0 0 0 0.30343 0.0155939 0.124055 0.05 
1180 1 1 0.673268 0.827554 0.0541004 0 0 0 -0.00676528 0.00765691 0.000733755 0 0 0 -0.104673 0.00198881 -0.00451639 0.05 
1153 1 1 0.771876 0.810258 0.0507689 0 0 0 -0.00686727 0.00659518 0.000944669 0 0 0 0.00438237 0.0549169 0.0273818 0.05 
1182 1 1 0.87098 0.795048 0.0511173 0 0 0 -0.00430158 0.00433408 3.2739e-05 0 0 0 -0.0422454 -0.00701311 -0.038052 0.05 
5729 1 1 1.05083 0.831332 0.0502636 0 0 0 -0.00854668 -0.00545092 0.000108841 0 0 0 0.0448258 0.0637859 0.0252832 0.05 
3471 1 1 1.14429 0.794771 0.0502124 0 0 0 -0.00889817 -0.00666557 -0.00040873 0 0 0 -0.00835617 -0.0518544 -0.0906242 0.05 
111 1 1 1.53417 0.782663 0.0507989 0 0 0 -0.00671321 -0.0241537 -0.00027941 0 0 0 -0.20668 0.223007 -0.0827379 0.05 
2319 1 1 0.0508474 0.863498 0.049996 0 0 0 7.70949e-06 0.0158131 0.00163026 -0.00286302 0.0366335 0.13453 -0.346065 -0.00217389 0.123807 0.05 
2321 1 1 0.214005 0.880267 0.0530625 0 0 0 0.000757805 0.016473 0.000962616 0 0 0 -0.0522797 -0.0399108 0.00704651 0.05 
2428 1 1 0.394845 0.855142 0.0508483 0 0 0 -0.00181675 0.0136926 0.000986175 0 0 0 0.237274 -0.096979 0.0320317 0.05 
3481 1 1 0.585346 0.885836 0.0503685 0 0 0 -0.00397835 0.0130497 -0.00261199 0 0 0 0.11157 0.0424852 -0.128554 0.05 
2309 1 1 1.2667 0.84454 0.0502661 0 0 0 -0.00750687 -0.0112776 -0.000623806 0 0 0 0.18678 0.0583873 -0.10962 0.05 
4599 1 1 1.36768 0.84005 0.0509654 0 0 0 -0.0046146 -0.0222208 0.00232394 0 0 0 0.370661 -0.00781819 -0.124285 0.05 
4603 1 1 1.46657 0.8679 0.0525507 0 0 0 -0.00636767 -0.0221403 0.000661981 0 0 0 0.0591215 0.16621 0.0169037 0.05 
3509 1 1 1.56688 0.8772 0.0500358 0 0 0 -0.00397944 -0.0236448 0.000611231 0 0 0 0.271734 -0.0799868 0.0256682 0.05 
4682 1 1 1.76607 0.841267 0.0504787 0 0 0 -0.000763735 -0.02003 -0.000624651 0 0 0 0.175031 0.0794704 0.126232 0.05 
3631 1 1 1.86705 0.842634 0.0524384 0 0 0 -0.00043761 -0.0157941 0.00111609 0 0 0 0.030292 0.0253699 -0.191529 0.05 
5747 1 1 0.310106 0.910388 0.0501457 0 0 0 -0.000309473 0.0187262 0.00103255 0 0 0 -0.100559 -0.0337135 0.0672659 0.05 
1148 1 1 0.485245 0.898323 0.052176 0 0 0 -0.00333084 0.0204236 0.000464558 0 0 0 -0.269241 -0.0287345 -0.0436362 0.05 
3436 1 1 0.677657 0.932052 0.0521788 0 0 0 -0.00351515 0.00727668 -0.00283815 0 0 0 0.0328682 -0.0310919 -0.00176718 0.05 
10 1 1 0.775626 0.91056 0.0503305 0 0 0 -4.22455e-05 0.00736434 -0.00240614 0 0 0 -0.0230679 -0.11847 -0.05647 0.05 
4583 1 1 0.876557 0.896921 0.050406 0 0 0 -0.00223493 0.0042817 -0.000748204 0 0 0 -0.0438071 -0.00249855 -0.0107846 0.05 
1164 1 1 1.21442 0.932751 0.0500959 0 0 0 -0.00260509 -0.00823406 0.000530878 0 0 0 0.153634 -0.0442196 0.0534293 0.05 
3454 1 1 1.31473 0.935098 0.0502434 0 0 0 -0.00201062 -0.0139574 0.000770858 0 0 0 0.21224 0.0381226 -0.108598 0.05 
112 1 1 1.6916 0.909883 0.0557398 0 0 0 -0.00499413 -0.0198286 0.00298647 0 0 0 0.202984 -0.423692 0.0123118 0.05 
1224 1 1 1.81383 0.929379 0.0500481 0 0 0 -0.00022108 -0.0193667 -0.000378981 0 0 0 0.191627 -0.0972051 0.0121844 0.05 
2425 1 1 1.94931 0.899651 0.0502314 0 0 0 -0.00236684 -0.014527 -5.20189e-05 0 0 0 -0.128525 0.000214141 0.251454 0.05 
1225 1 1 0.0505767 0.999167 0.0505624 0 0 0 0.00256472 0.0141494 0.000701833 0 0 0 -0.293311 -0.00775673 0.317279 0.05 
4572 1 1 0.215516 0.981588 0.0501449 0 0 0 -0.00341537 0.0195312 0.00156857 0 0 0 -0.164467 -0.0611297 0.0576698 0.05 
3464 1 1 0.39924 0.958639 0.0501345 0 0 0 -0.00112732 0.0178917 0.000477802 0 0 0 -0.289007 -0.098744 -0.0264701 0.05 
2288 1 1 0.491212 0.99917 0.050795 0 0 0 0.00338446 0.0186335 0.000337003 0 0 0 -0.132628 -0.136577 -0.00499973 0.05 
5 1 1 0.593209 0.985577 0.0500119 0 0 0 -0.000162673 0.00964106 -0.00112858 0 0 0 -0.156472 -0.017389 -0.00328649 0.05 
5722 1 1 0.837151 0.989407 0.0501409 0 0 0 0.000135149 0.00525927 0.00150539 0 0 0 -0.0955898 0.0134908 -0.00757089 0.05 
3441 1 1 0.936666 0.978882 0.0500344 0 0 0 0.000178582 0.00218723 -3.7558e-05 0 0 0 -0.0140214 0.00758579 -0.0483753 0.05 
4587 1 1 1.03461 0.957865 0.0501115 0 0 0 -0.000360459 -0.0043166 0.000826777 0 0 0 0.0408276 -0.0211029 -0.0255134 0.05 
3457 1 1 1.41169 0.962107 0.0500279 0 0 0 -0.00597336 -0.0170324 -0.00132944 0 0 0 0.100321 -0.0309364 0.0249208 0.05 
2316 1 1 1.51181 0.960683 0.0522403 0 0 0 -0.00120557 -0.0210857 0.00151877 0 0 0 -0.0676145 -0.0147506 -0.114538 0.05 
5916 1 1 1.89738 0.985676 0.0500916 0 0 0 -0.00654873 -0.0145323 -0.00266632 0 0 0 0.197214 -0.00123875 -0.148077 0.05 
6025 1 1 0.0629 0.0566791 0.0901335 0 0 0 -0.076817 0.0393812 0.0465956 0 0 0 -0.44488 0.27157 -0.206055 0.05 
4753 1 1 0.384753 0.0514203 0.104379 0 0 0 -0.0411068 0.0146071 0.0296736 0 0 0 -0.727126 -0.548184 -0.672462 0.05 
56 1 1 0.642813 0.056975 0.0823365 0 0 0 -0.0533585 0.00400971 0.0338556 0 0 0 0.00386894 -1.47992 0.624581 0.05 
53 1 1 0.949867 0.0943667 0.0726071 0 0 0 -0.0503348 0.0228983 0.00185635 0 0 0 -0.00264578 -0.841981 -1.58679 0.05 
1203 1 1 1.10463 0.0955254 0.0532127 0 0 0 -0.0448918 0.0179183 -0.0329462 0 0 0 -0.0551518 -0.248597 -4.57371 0.05 
5724 1 1 1.62314 0.0657739 0.0726897 0 0 0 -0.038155 0.0033508 -0.0198895 0 0 0 -1.28054 0.832313 -0.804704 0.05 
5801 1 1 0.256845 0.147238 0.0582385 0 0 0 -0.0123535 -0.0183798 0.000700207 0 0 0 -0.231238 0.900353 0.0405029 0.05 
3521 1 1 0.454068 0.136525 0.0553146 0 0 0 -0.0554431 -0.0274173 -0.0475578 0 0 0 0.518666 0.342481 0.810984 0.05 
18 1 1 1.31303 0.12105 0.063889 0 0 0 -0.0712559 -0.00427139 0.010567 0 0 0 0.257836 0.0446618 0.156016 0.05 
5779 1 1 1.84397 0.155132 0.0849451 0 0 0 -0.0129387 -0.0179979 -0.00200889 0 0 0 -0.266326 -0.0992737 0.0780823 0.05 
4574 1 1 0.170635 0.20093 0.0633213 0 0 0 -0.0137823 0.00373746 -0.0176123 0 0 0 -0.0667054 -0.960242 -0.257979 0.05 
4577 1 1 0.882857 0.173099 0.067387 0 0 0 -0.031966 -0.015553 -0.00584515 0 0 0 0.823844 0.225908 -0.143405 0.05 
2301 1 1 1.17974 0.203296 0.0676901 0 0 0 -0.0381729 -0.00187197 -0.00561952 0 0 0 -0.129947 -0.254898 0.348856 0.05 
5772 1 1 0.530094 0.250592 0.0957016 0 0 0 -0.0273342 0.0233836 -0.0127146 0 0 0 0.112631 0.331058 -0.111733 0.05 
5734 1 1 1.27374 0.254883 0.0730012 0 0 0 -0.0182652 -0.00994192 -0.012878 0 0 0 -0.193716 -0.342118 -0.0589935 0.05 
6023 1 1 0.242587 0.300083 0.0711888 0 0 0 -0.0168 0.00508374 0.0104201 0 0 0 -0.663128 -0.118152 0.911224 0.05 
5720 1 1 0.444052 0.304665 0.0777089 0 0 0 -0.00694916 0.0468764 -0.0258416 0 0 0 0.111648 -0.592617 -1.24987 0.05 
4595 1 1 1.70793 0.304475 0.0570927 0 0 0 -0.0152321 -0.0211282 0.00374731 0 0 0 -0.135455 0.0495065 -0.247969 0.05 
3451 1 1 1.94898 0.318768 0.0713623 0 0 0 -0.00109347 -0.0205776 0.00367949 0 0 0 -0.284512 0.0209158 0.247875 0.05 
3467 1 1 0.732073 0.362714 0.0854251 0 0 0 -0.0191388 0.000875543 0.0101779 0 0 0 0.365537 0.291063 0.0866169 0.05 
1221 1 1 1.78075 0.377711 0.10972 0 0 0 -0.00382696 -0.0151197 0.000446822 0 0 0 0.0937148 -0.256844 0.0580863 0.05 
2400 1 1 0.424203 0.409582 0.0814135 0 0 0 0.00204338 0.0300289 0.00166049 0 0 0 -0.121878 -0.603429 -0.185574 0.05 
5769 1 1 0.519893 0.39247 0.11085 0 0 0 -0.0202007 0.0056103 0.00918703 0 0 0 0.245574 0.238414 -0.141309 0.05 
5835 1 1 0.665211 0.436034 0.102017 0 0 0 -0.0230263 0.00138909 -0.0173437 0 0 0 -0.105399 0.135564 -0.110468 0.05 
4633 1 1 0.828062 0.403128 0.0598246 0 0 0 -0.0067431 0.00390298 -0.0100606 0 0 0 0.156261 0.374205 -0.455764 0.05 
5730 1 1 1.12061 0.441515 0.0574333 0 0 0 -0.0234758 -0.00245075 0.00487568 0 0 0 -0.0176476 -0.0759882 -0.166953 0.05 
4684 1 1 0.14893 0.505359 0.0627354 0 0 0 -0.00153402 0.0206275 0.00249219 0 0 0 -0.323286 0.195364 -0.198433 0.05 
1146 1 1 0.24992 0.4666 0.0637334 0 0 0 -0.0244117 0.0246736 0.000877468 0 0 0 -0.319228 -0.202848 -0.068649 0.05 
4625 1 1 0.479938 0.492269 0.0708638 0 0 0 0.00436941 0.0143066 0.00992693 0 0 0 -0.0910043 0.0227479 0.0533052 0.05 
13 1 1 0.754059 0.496164 0.0686751 0 0 0 -0.0210847 0.00874621 0.000394933 0 0 0 0.113278 0.131337 0.0798498 0.05 
2313 1 1 1.50873 0.44219 0.0680014 0 0 0 -0.0150949 -0.00943415 0.00338115 0 0 0 -0.105352 0.290316 0.119573 0.05 
5760 1 1 1.74819 0.468727 0.058341 0 0 0 -0.0121114 -0.0165216 -0.0115672 0 0 0 -0.00345688 0.111854 -0.0135082 0.05 
2492 1 1 0.0561455 0.548193 0.0562318 0 0 0 0.00524324 0.0367458 -0.00368638 0 0 0 -0.235994 -0.277987 0.416275 0.05 
4576 1 1 0.339823 0.550695 0.0752779 0 0 0 0.00189108 0.0249542 -0.00318225 0 0 0 -0.0570618 0.124055 0.192688 0.05 
3458 1 1 1.94996 0.512741 0.0910678 0 0 0 -0.000188294 -0.0200085 0.00657967 0 0 0 -0.207865 0.0909472 0.265392 0.05 
1 1 1 0.143676 0.60599 0.0703253 0 0 0 -0.0150861 0.0236738 0.00659807 0 0 0 0.0412051 -0.0466734 0.120328 0.05 
5725 1 1 0.787903 0.601237 0.056486 0 0 0 -0.0130607 0.00749115 -0.0033866 0 0 0 -0.0887268 -0.0616143 -0.0950729 0.05 
2353 1 1 1.00387 0.587928 0.108179 0 0 0 -0.0270731 -0.000738344 0.000590732 0 0 0 -0.0987393 0.123243 0.123909 0.05 
3450 1 1 1.10106 0.607698 0.0684873 0 0 0 -0.0191296 -0.00388403 0.000697881 0 0 0 -0.06976 0.0619411 -0.0514142 0.05 
75 1 1 1.36184 0.563709 0.093924 0 0 0 -0.0171487 -0.0177174 -0.000714089 0 0 0 -0.0262908 0.113946 0.0686184 0.05 
29 1 1 1.49327 0.585999 0.0573979 0 0 0 -0.0102646 -0.0223655 -0.00319116 0 0 0 -0.00249325 -0.0139919 0.0538495 0.05 
1177 1 1 0.0511296 0.656609 0.0558617 0 0 0 -0.00397083 0.0178157 -0.0137123 0 0 0 -0.150746 -0.122135 0.118699 0.05 
3 1 1 0.368251 0.655837 0.0739343 0 0 0 -0.00185186 0.0287633 0.000286919 0 0 0 0.143055 -0.197433 0.207014 0.05 
3476 1 1 1.59497 0.625407 0.0570022 0 0 0 -0.0114201 -0.0159249 0.00069623 0 0 0 -0.0546627 0.106766 -0.173374 0.05 
4601 1 1 1.94307 0.605935 0.0546954 0 0 0 -0.00274597 -0.0224861 -0.00908019 0 0 0 -0.0564072 -0.0252545 -0.107477 0.05 
15 1 1 0.890667 0.694537 0.0571714 0 0 0 -0.00859809 0.00194706 -0.000714516 0 0 0 0.130006 -0.0444743 -0.178098 0.05 
2367 1 1 1.64673 0.712395 0.0563116 0 0 0 -0.00350947 -0.0168148 -0.000720636 0 0 0 -0.0334783 -0.0811974 0.021692 0.05 
5746 1 1 0.0652885 0.76882 0.0812698 0 0 0 0.00608103 0.015042 0.00747311 0 0 0 0.124489 -0.0388853 0.0435374 0.05 
36 1 1 0.393162 0.754948 0.0588618 0 0 0 0.000538011 0.0165777 0.00346044 0 0 0 -0.284864 -0.0168324 0.0867597 0.05 
5750 1 1 0.6886 0.728048 0.0581383 0 0 0 -0.00984598 0.00656711 0.00248605 0 0 0 0.104879 0.0374192 -0.0827505 0.05 
3470 1 1 1.06611 0.738772 0.087145 0 0 0 -0.00923419 -0.00596357 0.00209176 0 0 0 -0.0768875 0.00869746 -0.0874178 0.05 
1178 1 1 0.304396 0.812471 0.0711046 0 0 0 0.00171003 0.0192493 0.00540322 0 0 0 0.0605601 -0.160527 -0.0167492 0.05 
4573 1 1 0.469986 0.809621 0.105122 0 0 0 0.00360662 0.0183968 -0.00347475 0 0 0 -0.00328002 0.0196303 0.0670824 0.05 
5851 1 1 1.64294 0.813202 0.0615054 0 0 0 0.00206245 -0.0204043 -0.00576515 0 0 0 0.0231804 0.0145378 0.156204 0.05 
49 1 1 1.94877 0.798068 0.091685 0 0 0 0.000337491 -0.0209762 -0.0124333 0 0 0 -0.064524 -0.0244005 -0.104348 0.05 
5795 1 1 0.135615 0.838184 0.0988934 0 0 0 -0.000298316 0.016008 0.00226631 0 0 0 -0.0754038 -0.0210917 -0.0773414 0.05 
2348 1 1 0.972389 0.887222 0.0853249 0 0 0 -0.00208547 -0.00210218 0.00166944 0 0 0 -0.0605416 -0.0237836 -0.0665106 0.05 
3463 1 1 0.127611 0.936376 0.0653112 0 0 0 0.0044474 0.0173605 0.00460411 0 0 0 0.221556 -0.0149304 -0.166073 0.05 
2327 1 1 1.11864 0.904572 0.061165 0 0 0 -0.00500646 -0.00888229 -0.00343117 0 0 0 -0.122361 0.00431678 -0.0355343 0.05 
2424 1 1 1.60842 0.948436 0.106874 0 0 0 -0.00618354 -0.0253698 0.000897185 0 0 0 -0.178876 -0.0398229 -0.0325551 0.05 
38 1 1 1.10447 0.0519231 0.160908 0 0 0 -0.0766456 -0.0107539 0.0119089 0 0 0 -0.610717 0.0568367 -0.00762944 0.05 
3525 1 1 1.84523 0.051387 0.151514 0 0 0 -0.00580978 -0.0251096 -0.0348975 0 0 0 -0.46949 -0.298373 -0.475777 0.05 
2322 1 1 0.174477 0.115517 0.132036 0 0 0 0.00307226 0.00918998 0.0109787 0 0 0 -0.274235 0.455602 -0.486578 0.05 
123 1 1 1.21542 0.0919567 0.131394 0 0 0 -0.0776856 -0.00196016 -0.0520193 0 0 0 -0.406515 -0.253748 -0.097528 0.05 
60 1 1 1.40696 0.102526 0.154065 0 0 0 -0.0629467 -0.0197599 -0.0393179 0 0 0 0.207618 0.178145 -0.611403 0.05 
3496 1 1 1.02649 0.190742 0.123311 0 0 0 -0.0470997 -0.010774 -0.0172861 0 0 0 0.0205585 0.040952 -0.377483 0.05 
2411 1 1 1.23815 0.202348 0.151722 0 0 0 -0.0416287 0.000655187 0.000518485 0 0 0 0.0758447 0.297498 -0.625892 0.05 
2382 1 1 1.34129 0.180902 0.150377 0 0 0 -0.0606249 -0.00538654 -0.0112986 0 0 0 0.252182 0.116239 0.205837 0.05 
2384 1 1 1.58812 0.185693 0.131461 0 0 0 -0.0346986 -0.00375815 0.00862313 0 0 0 0.267787 0.355854 -0.261977 0.05 
4699 1 1 1.74537 0.216943 0.142999 0 0 0 -0.0216632 -0.00145513 -0.0148509 0 0 0 0.0923671 0.0505666 0.0874284 0.05 
1214 1 1 1.94827 0.189368 0.136593 0 0 0 -0.00401377 -0.0218683 -0.00602768 0 0 0 -0.192519 0.102979 0.17698 0.05 
2308 1 1 1.48773 0.241926 0.12668 0 0 0 -0.0241896 0.000755173 0.0235115 0 0 0 -0.117917 0.0804075 0.123268 0.05 
1186 1 1 1.65522 0.261009 0.133231 0 0 0 -0.0163673 -0.0175045 0.0037393 0 0 0 0.106301 0.116778 -0.0581029 0.05 
5785 1 1 1.84692 0.249095 0.142512 0 0 0 -0.00923596 -0.0221568 0.000452315 0 0 0 -0.0323528 -0.126477 -0.0723143 0.05 
3513 1 1 0.0985849 0.335174 0.133098 0 0 0 -0.0115419 0.011393 -0.00708867 0 0 0 0.384436 0.0283206 0.303025 0.05 
4581 1 1 0.822026 0.315526 0.115239 0 0 0 -0.0241395 0.00362611 -0.011642 0 0 0 0.267528 -0.283187 -0.1014 0.05 
1185 1 1 0.99591 0.323962 0.139303 0 0 0 -0.0415386 -0.00858161 0.00796538 0 0 0 0.0597509 0.057446 0.0575101 0.05 
2389 1 1 1.25012 0.314041 0.159561 0 0 0 -0.0340728 -0.0173163 0.00264003 0 0 0 0.199861 0.238635 -0.056538 0.05 
4643 1 1 1.37911 0.289907 0.115066 0 0 0 -0.041741 0.0178433 0.00184349 0 0 0 -0.0974198 0.123559 0.100186 0.05 
1196 1 1 0.391031 0.349258 0.155415 0 0 0 -0.0182324 0.0144995 -0.00870701 0 0 0 0.369267 0.0229557 0.314128 0.05 
2356 1 1 1.09994 0.33099 0.152904 0 0 0 -0.0319841 -0.0116559 0.000969908 0 0 0 -0.019748 0.16435 -0.110307 0.05 
2361 1 1 1.48895 0.349237 0.138141 0 0 0 -0.0255702 0.00762047 0.00187156 0.0152839 0.00348199 0.0837736 0.274534 0.0293004 0.210683 0.05 
78 1 1 1.6192 0.354317 0.134174 0 0 0 -0.0118697 -0.0214638 -0.000603865 0 0 0 -0.00477903 0.0960533 -0.0808165 0.05 
1250 1 1 1.87795 0.352103 0.145607 0 0 0 -0.00540823 -0.0197612 0.00494038 0 0 0 -0.0198347 -0.075854 -0.22999 0.05 
3639 1 1 0.178774 0.399186 0.152366 0 0 0 -0.00939916 0.0289946 0.0210586 0 0 0 0.259028 -0.270374 0.00934749 0.05 
3524 1 1 0.765064 0.431027 0.151033 0 0 0 -0.021636 0.00504761 -0.00457299 0 0 0 -0.222021 -0.288361 -0.0435137 0.05 
4637 1 1 0.906717 0.394873 0.144336 0 0 0 -0.037417 -0.0045848 -0.00810665 0 0 0 0.17748 -0.278056 -0.164471 0.05 
1213 1 1 1.09755 0.436855 0.156917 0 0 0 -0.0396975 -0.00970135 -0.00179926 0 0 0 0.0658021 -0.00617387 0.0333597 0.05 
71 1 1 1.18427 0.387396 0.14213 0 0 0 -0.0406336 -0.00343951 0.0132596 0 0 0 -0.301293 0.066563 -0.188295 0.05 
1189 1 1 1.29278 0.401779 0.131251 0 0 0 -0.0396116 0.00877572 -0.0132493 -1.2652 0.100288 -0.839154 0.0157077 0.379499 0.087632 0.05 
1218 1 1 1.4121 0.422499 0.145177 0 0 0 -0.0285077 -0.0137214 0.00328092 0.0101805 -0.0316126 -0.098266 -0.258649 0.080831 0.0250301 0.05 
4647 1 1 1.94931 0.425546 0.152465 0 0 0 0.00118143 -0.0242553 -0.00125034 0 0 0 0.0746742 0.1912 0.236397 0.05 
5796 1 1 0.0739905 0.495535 0.151424 0 0 0 -0.00795974 0.0193149 -0.00887433 0 0 0 0.0199219 -0.269733 -0.0153878 0.05 
5718 1 1 0.30555 0.459175 0.147326 0 0 0 0.000387355 0.0256207 0.0236222 0 0 0 0.138927 0.163359 -0.437279 0.05 
3495 1 1 0.997113 0.455918 0.134059 0 0 0 -0.044114 -0.0100492 -0.00570926 0 0 0 -0.056377 0.171249 0.0144007 0.05 
45 1 1 1.21041 0.485419 0.136608 0 0 0 -0.0295985 -0.00412189 -0.00127871 0 0 0 0.0760294 0.0559319 -0.170125 0.05 
107 1 1 1.33785 0.488989 0.155997 0 0 0 -0.0158402 -0.00384337 0.007648 0 0 0 -0.131577 -0.068157 0.0351493 0.05 
3508 1 1 1.59889 0.450658 0.110657 0 0 0 -0.0119198 -0.0157759 -0.00395913 0 0 0 -0.0597043 0.0111838 0.0396707 0.05 
2459 1 1 1.84534 0.451081 0.151605 0 0 0 -0.00494373 -0.0249127 0.00134702 0 0 0 -0.021635 -0.0768664 -0.289076 0.05 
5764 1 1 0.386715 0.550446 0.163818 0 0 0 0.00571835 0.026028 -0.00635606 0 0 0 0.224536 0.0521759 0.0150925 0.05 
2378 1 1 0.594608 0.515456 0.144559 0 0 0 -0.00430638 0.0196542 0.0189301 0 0 0 0.213169 0.0464545 -0.204974 0.05 
1239 1 1 0.931596 0.530869 0.156394 0 0 0 -0.0207578 -0.00514461 0.000502988 0 0 0 0.0809854 -0.0178231 -0.0597366 0.05 
70 1 1 1.08037 0.535793 0.148611 0 0 0 -0.0183966 -0.00618456 0.00617422 0 0 0 0.0059328 -0.0628643 -0.00767499 0.05 
109 1 1 1.46553 0.511892 0.15382 0 0 0 -0.0124839 -0.0212566 0.00421612 0 0 0 -0.079888 0.184956 0.031692 0.05 
138 1 1 1.56542 0.541494 0.151768 0 0 0 -0.0123176 -0.0197745 0.00200634 0 0 0 -0.0473152 0.185758 -0.108554 0.05 
5822 1 1 1.6877 0.497697 0.134344 0 0 0 -0.00697749 -0.0265219 -0.00182714 0 0 0 -0.0454483 -0.00447151 -0.0670309 0.05 
83 1 1 0.0556851 0.602224 0.146244 0 0 0 0.00344633 0.0282279 0.00422501 0 0 0 -0.0742194 -0.134698 -0.0520606 0.05 
2434 1 1 0.497762 0.61436 0.134265 0 0 0 0.00736253 0.0212186 0.00575731 0 0 0 0.00373701 -0.248144 -0.0454936 0.05 
1235 1 1 0.710447 0.562379 0.135501 0 0 0 -0.0268659 0.0142583 -0.00719605 0 0 0 -0.024923 0.165916 -0.0788731 0.05 
4693 1 1 0.857198 0.598572 0.128691 0 0 0 -0.0202277 0.00723945 -8.536e-05 0 0 0 0.00722503 -0.0235187 -0.016926 0.05 
1187 1 1 1.17199 0.597738 0.138967 0 0 0 -0.0191674 -0.00881484 -0.00215708 0 0 0 -0.0293519 -0.0273724 0.0182973 0.05 
3501 1 1 1.26976 0.565854 0.146398 0 0 0 -0.0223433 -0.0153744 -0.000222088 0 0 0 -0.153065 0.0850097 0.0547491 0.05 
139 1 1 1.65023 0.591856 0.134501 0 0 0 -0.00796143 -0.0225882 0.0020042 0 0 0 0.157131 -0.203447 0.0240644 0.05 
1282 1 1 1.76826 0.563057 0.150297 0 0 0 -0.00140425 -0.0167311 -0.0087356 0 0 0 -0.104308 -0.148329 0.0289712 0.05 
1254 1 1 1.86872 0.557862 0.129406 0 0 0 -0.000682017 -0.0184981 -0.00301772 0 0 0 0.115282 0.0601482 -0.0950153 0.05 
4843 1 1 0.209657 0.620282 0.150387 0 0 0 -0.00231847 0.0184804 0.00699065 0 0 0 0.053487 0.154587 -0.16733 0.05 
4630 1 1 0.611877 0.649628 0.158248 0 0 0 0.00261911 0.0155942 0.00523366 0 0 0 -0.0280021 0.0311743 0.0819031 0.05 
1204 1 1 0.724269 0.662508 0.139248 0 0 0 -0.0138144 0.0107152 -0.00194936 0 0 0 -0.0559041 -0.045201 -0.0345173 0.05 
4617 1 1 1.33698 0.642346 0.151018 0 0 0 -0.0187686 -0.0145599 -0.00116546 0 0 0 0.0242651 -0.0683737 -0.0123364 0.05 
4648 1 1 1.43288 0.612471 0.145514 0 0 0 -0.00994736 -0.0146683 0.00164906 0 0 0 0.125484 -0.0473483 0.0249357 0.05 
4680 1 1 1.53072 0.63481 0.136686 0 0 0 -0.0143836 -0.0194528 -0.00131524 0 0 0 0.0204504 -0.0474639 -0.0365633 0.05 
3632 1 1 1.8272 0.647547 0.148006 0 0 0 -0.00639301 -0.0256918 -0.00581902 0 0 0 0.0810822 -0.0200418 -0.0598643 0.05 
2558 1 1 0.200651 0.719407 0.133719 0 0 0 0.00219937 0.0244349 -0.0016245 0 0 0 -0.0279854 -0.0642294 -0.0904484 0.05 
2291 1 1 0.48989 0.713722 0.142914 0 0 0 -0.00573127 0.0180398 0.000938085 0 0 0 0.00442552 -0.105551 -0.105422 0.05 
5776 1 1 0.819592 0.693539 0.145082 0 0 0 -0.013167 0.00717042 0.00263453 0 0 0 0.0615373 0.0114524 0.0235669 0.05 
96 1 1 0.927236 0.674489 0.151602 0 0 0 -0.0132279 0.00481961 -0.00415557 0 0 0 0.057241 -0.096858 -0.014912 0.05 
44 1 1 1.14683 0.697944 0.151866 0 0 0 -0.0165434 -0.00900601 -0.00815599 0 0 0 0.0401772 0.154304 -0.0532776 0.05 
46 1 1 1.24208 0.671418 0.132042 0 0 0 -0.0177263 -0.0110353 0.0030909 0 0 0 -0.184512 0.0259446 -0.037105 0.05 
3506 1 1 1.40973 0.70969 0.135654 0 0 0 -0.0204645 -0.0118515 -0.00469428 0 0 0 -0.171549 0.0371617 0.0788698 0.05 
5982 1 1 1.72237 0.662612 0.143474 0 0 0 -0.0122562 -0.0194829 -0.000988974 0 0 0 -0.0331907 0.0244248 -0.15999 0.05 
2522 1 1 1.94604 0.679524 0.14896 0 0 0 -0.000261259 -0.0275866 0.000176745 0 0 0 -0.193585 0.0968552 -0.0527543 0.05 
5855 1 1 0.29511 0.754348 0.153118 0 0 0 -0.0070467 0.0271959 0.0126623 0 0 0 -0.118404 -0.011545 0.0062685 0.05 
5748 1 1 0.395199 0.767221 0.159992 0 0 0 -0.00650498 0.0312198 0.000889194 0 0 0 0.0995123 -0.0898394 0.0913417 0.05 
5770 1 1 0.660986 0.737059 0.162652 0 0 0 -0.00971884 0.0161514 -0.00062687 0 0 0 0.0462865 0.0890398 -0.0838461 0.05 
61 1 1 0.75239 0.773095 0.142338 0 0 0 -0.00598224 0.00971275 0.00258899 0 0 0 0.06813 -0.0388648 -0.0605809 0.05 
2381 1 1 0.887442 0.767426 0.146357 0 0 0 -0.0137657 0.00526309 0.00173644 0 0 0 -0.0149897 0.0461824 -0.050213 0.05 
2351 1 1 0.988146 0.768273 0.149574 0 0 0 -0.0120721 0.00390017 0.00141277 0 0 0 -0.0855897 -0.056695 0.0176439 0.05 
2358 1 1 1.228 0.77123 0.154557 0 0 0 -0.0135259 -0.0140033 0.000977274 0 0 0 0.0316733 -0.0449354 -0.0958459 0.05 
5852 1 1 1.86501 0.740526 0.148634 0 0 0 0.00179165 -0.029749 -0.000211674 0 0 0 0.0129117 -0.059138 -0.0765536 0.05 
4623 1 1 0.596319 0.810717 0.116363 0 0 0 -0.00634833 0.00739308 0.00229755 0 0 0 -0.121999 -0.0299937 0.0258658 0.05 
2386 1 1 1.13016 0.795849 0.164637 0 0 0 -0.0127856 -0.00431157 0.000677421 0 0 0 0.0900955 -0.0282197 -0.0605714 0.05 
5787 1 1 1.32906 0.781243 0.143164 0 0 0 -0.010084 -0.0148703 0.00373266 0 0 0 -0.00936869 0.0609782 0.00036961 0.05 
3505 1 1 1.42677 0.809483 0.140215 0 0 0 -0.00682601 -0.0150143 0.00155647 0 0 0 0.0829848 0.0823784 -0.134609 0.05 
5823 1 1 1.71347 0.820118 0.133141 0 0 0 -0.000619451 -0.0284171 -0.00187386 0 0 0 0.142834 -0.0684379 -0.171824 0.05 
3633 1 1 0.0510694 0.838679 0.154159 0 0 0 0.00200684 0.0150798 0.00252539 0 0 0 -0.0319472 0.0242041 -0.0128413 0.05 
3571 1 1 0.238505 0.857369 0.147731 0 0 0 0.0101305 0.0263274 -0.0039878 0 0 0 -0.221869 -0.140089 0.066358 0.05 
2323 1 1 0.682641 0.85642 0.152723 0 0 0 -0.00657304 0.0102275 -0.000440205 0 0 0 0.0134297 -0.0131856 -0.0324098 0.05 
4628 1 1 0.781356 0.868916 0.141388 0 0 0 -0.00642078 0.00839322 0.00135812 0 0 0 -0.0469541 -0.0215283 -0.025325 0.05 