ITEM: TIMESTEP
0
ITEM: NUMBER OF ATOMS
4584
ITEM: BOX BOUNDS pp pp pp
0 2
0 2
0 2
ITEM: ATOMS id type type x y z ix iy iz vx vy vz fx fy fz omegax omegay omegaz radius 
747 1 1 0.0522335 0.191038 0.052178 0 0 0 -0.00180823 0.0157908 -0.00234544 0 0 0 -0.332007 -0.0640265 -0.353207 0.05 
2244 1 1 1.93871 0.189852 0.0527459 0 0 0 -0.00119446 -0.0122065 -0.00118593 0 0 0 0.0201784 0.000981851 0.00849079 0.05 
3720 1 1 0.498936 0.286783 0.0537213 0 0 0 9.12429e-05 0.0214697 0.0181012 0 0 0 -0.419301 0.00647032 -0.543746 0.05 
2242 1 1 0.755106 0.320538 0.0577753 0 0 0 -0.0403924 0.0119258 0.0150584 0 0 0 -0.132093 -0.660191 -0.452879 0.05 
762 1 1 0.878527 0.313167 0.0567574 0 0 0 -0.0451631 -0.0171834 0.00657511 0 0 0 0.410707 -0.5708 0.235138 0.05 
2987 1 1 1.91603 0.29882 0.0553876 0 0 0 -0.00154284 -0.0155892 0.00444642 0 0 0 0.14946 -0.0555236 -0.180659 0.05 
2245 1 1 1.21789 0.38057 0.0596126 0 0 0 -0.0437279 0.0109354 0.0178321 0 0 0 -0.196177 -1.08044 -0.35326 0.05 
3017 1 1 1.47374 0.363774 0.0538074 0 0 0 -0.0198775 -0.0061354 0.00837098 0 0 0 -0.100656 -0.37321 0.220999 0.05 
2248 1 1 1.77518 0.342329 0.0504861 0 0 0 -0.0043309 -0.0150448 0.00452033 0 0 0 0.183244 -0.0858425 -0.254504 0.05 
1516 1 1 1.73301 0.434199 0.050412 0 0 0 -0.00837808 -0.0107898 -0.00192084 0 0 0 0.117119 -0.143124 0.282842 0.05 
2257 1 1 1.849 0.425725 0.0525462 0 0 0 0.00331178 -0.00823064 0.00122733 0 0 0 0.0206543 0.0741713 0.0677253 0.05 
2281 1 1 1.94957 0.401184 0.0512585 0 0 0 0.000734584 -0.0148314 -0.00922625 0 0 0 0.335828 0.00663474 0.206001 0.05 
3056 1 1 0.912629 0.476953 0.0525965 0 0 0 -0.0571698 0.0200006 0.0206104 0 0 0 -0.231923 -0.725992 -0.339623 0.05 
1536 1 1 1.12337 0.493511 0.0504659 0 0 0 -0.0248545 0.00158115 0.00218277 0 0 0 -0.00219186 -0.49639 -0.013825 0.05 
765 1 1 1.47249 0.465221 0.0537261 0 0 0 -0.0189377 0.00181929 -0.00192015 0 0 0 0.04898 -0.165382 -0.316124 0.05 
5 1 1 0.160738 0.555066 0.0505096 0 0 0 -0.0575439 0.0486205 0.000313815 0 0 0 -0.178746 0.390586 -0.213186 0.05 
21 1 1 0.977442 0.555701 0.0529696 0 0 0 -0.0312134 0.0122837 0.00349003 0 0 0 0.324758 -0.638199 -0.557529 0.05 
1508 1 1 1.39576 0.53371 0.0554274 0 0 0 -0.025431 -0.0166305 0.00421227 0 0 0 0.0136658 -0.03175 -0.244089 0.05 
58 1 1 1.69337 0.547945 0.0521597 0 0 0 -0.00848011 -0.0131612 0.00165082 0 0 0 0.312438 -0.134801 0.0762353 0.05 
1559 1 1 1.79398 0.514934 0.0526863 0 0 0 -0.00479752 -0.0248595 -0.000806435 0 0 0 -0.00347773 0.0012496 -0.0085515 0.05 
819 1 1 1.93415 0.500715 0.0512095 0 0 0 -0.00108898 -0.0143462 0.00107003 0 0 0 -0.123184 -0.0207506 -0.219472 0.05 
1541 1 1 1.50304 0.581046 0.054607 0 0 0 -0.00461184 -0.0191353 0.00452315 0 0 0 0.0589838 0.0123576 0.102083 0.05 
799 1 1 1.94321 0.60839 0.0564096 0 0 0 -0.00383714 -0.00149022 0.00649682 0 0 0 0.0605929 0.0208219 0.282085 0.05 
3745 1 1 0.186907 0.652865 0.051243 0 0 0 -0.00594643 0.0492657 0.000583024 0 0 0 0.11183 0.108111 -0.284875 0.05 
756 1 1 0.54144 0.630954 0.0548366 0 0 0 -0.0234583 0.0231861 0.0136267 0 0 0 -0.247259 -0.813676 -0.261001 0.05 
760 1 1 0.764251 0.672203 0.0527579 0 0 0 -0.0376212 0.0509346 -0.00400164 0 0 0 -0.252361 -0.284443 -0.384337 0.05 
3082 1 1 1.66058 0.643013 0.0529882 0 0 0 -0.00889926 -0.0153234 0.00370785 0 0 0 0.233867 -0.144486 0.272072 0.05 
3780 1 1 1.78824 0.616438 0.0517151 0 0 0 -0.00710338 -0.012998 0.0142727 0 0 0 0.322129 -0.189097 0.0571748 0.05 
54 1 1 1.32161 0.677253 0.0524298 0 0 0 -0.0120798 -0.00840745 -0.00729996 0 0 0 0.231723 -0.112435 -0.0702478 0.05 
3799 1 1 1.55259 0.672666 0.0540657 0 0 0 -0.0109571 -0.0186773 -0.00674633 0 0 0 0.213242 0.233074 0.0562646 0.05 
3122 1 1 1.85746 0.700821 0.0554452 0 0 0 -0.00146116 -0.0165062 0.00191455 0 0 0 0.362398 -0.150731 -0.00906824 0.05 
2251 1 1 0.387251 0.784982 0.0514971 0 0 0 0.0188259 0.0300885 0.00741412 0 0 0 -0.646617 0.34437 -0.0465232 0.05 
1504 1 1 1.04497 0.741855 0.0504124 0 0 0 -0.0160408 -0.00245592 0.00429616 0 0 0 0.00974461 -0.278007 -0.0516745 0.05 
3018 1 1 1.20337 0.767672 0.0521466 0 0 0 -0.00407043 -0.0117878 -0.0069256 0 0 0 0.296636 -0.0690519 -0.0583039 0.05 
3779 1 1 1.61685 0.751686 0.0570708 0 0 0 -0.0121514 -0.0100516 0.00937546 0 0 0 0.296289 -0.354943 -0.0254639 0.05 
6 1 1 0.265518 0.832631 0.0503736 0 0 0 -0.00812158 0.0199067 0.00787899 0 0 0 -0.473173 -0.216721 0.0629894 0.05 
922 1 1 0.0527196 0.893099 0.0507703 0 0 0 0.00582164 0.039739 -0.00487065 0 0 0 -0.519742 -0.0206673 0.574579 0.05 
30 1 1 0.526733 0.85319 0.0549875 0 0 0 -0.0130001 0.0372846 0.00804984 0 0 0 -0.643716 -0.304901 0.483695 0.05 
774 1 1 1.33827 0.881352 0.0510806 0 0 0 -0.00664874 -0.0160272 -0.00484541 0 0 0 -0.202724 0.140946 0.0772274 0.05 
1473 1 1 1.66408 0.851092 0.0513077 0 0 0 -0.00571679 -0.0224139 0.00038639 0 0 0 0.500848 -0.163184 -0.389258 0.05 
3889 1 1 0.221166 0.930553 0.0517313 0 0 0 -0.0151624 0.0561267 0.00370365 0 0 0 0.286214 0.168474 -0.244665 0.05 
2246 1 1 1.45768 0.958636 0.0603553 0 0 0 0.0135747 -0.0126776 0.020474 0 0 0 0.480723 0.350267 0.280661 0.05 
2267 1 1 0.171031 0.0524174 0.0732231 0 0 0 -0.00129662 0.0163353 -0.0194793 0 0 0 -0.0980618 -0.541621 -1.36536 0.05 
752 1 1 0.431916 0.0530171 0.0617491 0 0 0 -0.0424204 0.0163867 0.0110442 0 0 0 -0.516666 0.523816 -2.05847 0.05 
31 1 1 1.83697 0.0540451 0.0643854 0 0 0 -0.0189374 0.00436784 0.0104412 0 0 0 -0.0482493 -0.317694 -1.58477 0.05 
1012 1 1 0.0642273 0.103982 0.0999395 0 0 0 -0.00305102 0.0116551 0.0115112 0 0 0 0.374362 -0.428375 0.528509 0.05 
893 1 1 0.584914 0.0746 0.121226 0 0 0 -0.0537079 -0.0174936 0.0668657 0 0 0 0.570398 -0.964446 -2.49075 0.05 
155 1 1 0.68215 0.0618321 0.0900712 0 0 0 -0.021139 -0.0115916 0.0561617 0 0 0 -0.112794 -1.24509 -2.9089 0.05 
1491 1 1 1.21809 0.0865111 0.0664043 0 0 0 -0.0578266 -0.00696883 -0.010352 0 0 0 -0.873211 -0.237527 -0.206167 0.05 
2289 1 1 1.52751 0.0563687 0.0741405 0 0 0 -0.0369818 -0.0175119 0.00869377 0 0 0 -0.0940189 -0.305973 -0.951796 0.05 
2238 1 1 1.67941 0.0820006 0.0562037 0 0 0 -0.0192555 -0.0209285 -0.00192621 0 0 0 0.182863 -0.193566 0.517224 0.05 
3057 1 1 1.94428 0.0796171 0.072533 0 0 0 0.00378042 -0.0213342 -0.013967 0 0 0 -0.000577973 0.0624802 0.0668613 0.05 
152 1 1 0.98747 0.127189 0.0890462 0 0 0 -0.0768693 -0.0308046 0.0167651 0 0 0 0.34208 -0.9295 -0.454971 0.05 
750 1 1 0.155855 0.168382 0.0630736 0 0 0 -0.0216859 0.00311415 0.0125106 0 0 0 -0.0443998 -0.333174 0.475031 0.05 
3836 1 1 0.84852 0.180792 0.0779767 0 0 0 -0.0498616 0.00157413 0.0173794 0 0 0 0.251121 -1.61949 0.511746 0.05 
3759 1 1 1.4858 0.170877 0.0572531 0 0 0 -0.0268128 -0.00406707 0.00541678 0 0 0 0.130577 -0.472979 -0.00124012 0.05 
32 1 1 1.82831 0.209595 0.0662699 0 0 0 0.00130287 0.001928 -0.00113263 0 0 0 0.011828 0.107415 0.00665323 0.05 
43 1 1 0.149313 0.280577 0.0547609 0 0 0 -0.0332554 0.0142716 -0.0246916 0 0 0 -0.0280527 -0.0255298 0.527507 0.05 
2239 1 1 0.397368 0.223486 0.0723249 0 0 0 -0.106096 0.00873743 -0.0409408 0 0 0 0.448082 -0.587053 -0.427989 0.05 
856 1 1 0.605525 0.246193 0.0708724 0 0 0 -0.0791615 0.0150317 6.77209e-05 0 0 0 -0.745419 -1.01745 -1.74319 0.05 
73 1 1 0.958301 0.239589 0.0662923 0 0 0 -0.0470955 0.0016036 0.00289887 0 0 0 0.17418 0.42082 -0.760342 0.05 
1506 1 1 1.39301 0.249419 0.0850228 0 0 0 -0.0269411 -0.00888853 -0.000707379 0 0 0 -0.0473036 -0.102372 -0.0562738 0.05 
2989 1 1 1.57759 0.242332 0.0592513 0 0 0 -0.01757 -0.024908 0.00151113 0 0 0 0.143512 -0.364119 -0.261292 0.05 
2247 1 1 1.73231 0.251384 0.056301 0 0 0 -0.0154698 -0.00793973 0.000571216 0 0 0 -0.129682 -0.126535 0.289197 0.05 
74 1 1 1.13296 0.291608 0.0831027 0 0 0 -0.0320257 -0.00572779 0.00985431 0 0 0 0.71928 0.521845 0.0953057 0.05 
1503 1 1 1.32387 0.318181 0.0605861 0 0 0 -0.0240347 -0.00908042 -0.023016 0 0 0 -0.238838 0.279036 0.0983328 0.05 
3031 1 1 0.0696113 0.390443 0.0694255 0 0 0 -0.0434012 0.0276164 -0.00223492 0 0 0 0.0305959 -0.679129 0.381886 0.05 
788 1 1 0.251313 0.344627 0.0673674 0 0 0 -0.0268711 0.0400687 0.00182079 0 0 0 0.173393 -0.66187 -0.117186 0.05 
2994 1 1 0.418247 0.367487 0.0724078 0 0 0 -0.0443979 0.0190977 0.00797175 0 0 0 0.568809 -0.0713521 -0.666335 0.05 
2982 1 1 0.990117 0.365487 0.071023 0 0 0 -0.0541556 0.00650423 0.018046 0 0 0 -0.135054 -1.09388 -0.0981405 0.05 
1507 1 1 1.58101 0.368984 0.0582839 0 0 0 -0.00979609 -0.0110584 0.00873193 0 0 0 0.217929 -0.208087 -0.214533 0.05 
3798 1 1 1.67239 0.330073 0.0797072 0 0 0 -0.0069895 -0.0190053 -0.00850614 0 0 0 0.0882629 0.31206 0.243572 0.05 
1497 1 1 0.325148 0.437959 0.0575527 0 0 0 -0.00297688 0.0126253 -0.0478974 0 0 0 0.793992 -0.189291 0.199397 0.05 
2294 1 1 0.528382 0.437182 0.0618362 0 0 0 -0.0229603 0.00850972 0.0160805 1.86278 0.0362664 -2.30309 -0.21094 -0.902913 0.242167 0.05 
2995 1 1 1.33276 0.439023 0.0673612 0 0 0 -0.0231741 -0.0184502 0.00243689 0 0 0 -0.325047 0.150061 -0.111212 0.05 
47 1 1 0.234094 0.488073 0.0674444 0 0 0 -0.0287137 0.00807034 -0.00369834 0 0 0 0.107195 0.503359 -0.0635648 0.05 
18 1 1 0.651162 0.470207 0.0692069 0 0 0 -0.0533051 0.0182998 0.00477366 0 0 0 0.181184 -0.645825 0.266702 0.05 
1534 1 1 0.755614 0.444681 0.0699514 0 0 0 -0.0810009 -0.000249689 0.00787059 0 0 0 0.176087 -0.750198 -0.519584 0.05 
2341 1 1 1.62292 0.462444 0.0566957 0 0 0 -0.0101255 -0.00812757 -0.00474799 0 0 0 0.180619 -0.12302 -0.302035 0.05 
2967 1 1 0.314821 0.547743 0.0610118 0 0 0 -0.0162302 0.0521729 -0.0326839 0 0 0 -0.539066 -0.288429 0.489712 0.05 
2235 1 1 0.477695 0.553193 0.053968 0 0 0 -0.0309481 0.0176787 -0.0100889 0 0 0 0.0497692 -0.195064 0.213785 0.05 
3775 1 1 0.571472 0.548151 0.103668 0 0 0 -0.0195942 0.0308833 0.016095 0 0 0 0.241606 -0.440239 -0.191111 0.05 
1501 1 1 0.742381 0.554125 0.0640633 0 0 0 -0.0478456 -0.004736 0.00650104 0 0 0 0.0747254 -0.411117 -0.19828 0.05 
56 1 1 1.25591 0.509583 0.060608 0 0 0 -0.026691 -0.0104452 -0.0054104 0 0 0 -0.0635112 -0.140203 -0.0337133 0.05 
2322 1 1 0.0672288 0.57675 0.0888532 0 0 0 0.00817907 0.0340584 0.00162446 0 0 0 -0.389884 0.477922 0.190323 0.05 
1514 1 1 0.849285 0.564427 0.102938 0 0 0 -0.0333701 0.0131713 0.00309862 0 0 0 0.327349 0.170283 -0.270167 0.05 
24 1 1 1.09247 0.593618 0.0589396 0 0 0 -0.0311444 0.00358088 -0.0141981 0 0 0 -0.232551 -0.31254 -0.35634 0.05 
2265 1 1 0.337169 0.674034 0.061911 0 0 0 -0.00771304 0.0432676 -0.0198437 0 0 0 -0.818925 0.358318 0.163238 0.05 
51 1 1 0.664944 0.625975 0.0590441 0 0 0 -0.0505773 0.0263474 -0.00353031 0 0 0 0.195426 -0.0288163 -0.296344 0.05 
3723 1 1 1.02316 0.652206 0.104409 0 0 0 -0.00995025 0.0135796 0.0202304 0 0 0 0.151382 -0.0785643 -0.301515 0.05 
767 1 1 1.20625 0.636002 0.0674183 0 0 0 -0.0154323 -0.0134191 0.00264521 0 0 0 -0.0867993 -0.415448 0.0106389 0.05 
3760 1 1 1.41385 0.64023 0.0702298 0 0 0 -0.0146583 -0.0191081 -0.00539304 0 0 0 -0.0996005 0.0183642 -0.160292 0.05 
3730 1 1 0.0556085 0.683767 0.068026 0 0 0 0.0167467 0.0388972 -0.012117 0 0 0 -0.0933979 0.269531 0.807198 0.05 
2975 1 1 0.437148 0.689121 0.0680574 0 0 0 -0.0102327 0.0194615 -0.00101167 0 0 0 -0.292923 0.193236 -0.224495 0.05 
19 1 1 0.943219 0.71452 0.0566152 0 0 0 -0.0183345 0.00227888 0.000355483 0 0 0 -0.0984182 -0.4413 -0.0723787 0.05 
3726 1 1 1.12753 0.702414 0.097712 0 0 0 -0.0208588 0.00523031 0.0101657 0 0 0 0.0896907 0.322806 0.0387294 0.05 
2964 1 1 0.194709 0.75098 0.0740085 0 0 0 -0.00772167 0.0487592 -0.0106995 0 0 0 -0.444169 -0.155282 0.265998 0.05 
14 1 1 0.604156 0.737983 0.0546073 0 0 0 -0.0210953 0.0510615 -0.0105279 0 0 0 0.0864159 -0.0706688 0.208431 0.05 
3012 1 1 0.747459 0.761122 0.104258 0 0 0 -0.0176703 0.0157971 0.0154699 0 0 0 0.218266 0.55059 0.147252 0.05 
2240 1 1 0.844295 0.767594 0.0593011 0 0 0 -0.0122465 0.0113372 0.00918723 0 0 0 -0.360325 -0.524906 -0.1535 0.05 
1600 1 1 1.47379 0.71923 0.0950032 0 0 0 -0.0180866 -0.0267754 0.00421731 0 0 0 0.0672664 -0.0923604 0.134453 0.05 
77 1 1 1.78201 0.750792 0.0995838 0 0 0 -0.00939015 -0.0329557 0.0149464 0 0 0 0.31001 -0.0721526 -0.0554472 0.05 
3781 1 1 0.066378 0.794331 0.0700776 0 0 0 0.0101494 0.0367452 0.00973881 0 0 0 0.041927 0.156283 -0.24144 0.05 
766 1 1 1.3405 0.775583 0.0668324 0 0 0 -0.0147485 -0.0308516 -0.00439647 0 0 0 -0.0782965 -0.213568 0.0444767 0.05 
2255 1 1 1.43299 0.817808 0.0759702 0 0 0 -0.00986108 -0.0221108 -0.000716489 0 0 0 0.0599904 0.115006 0.0257603 0.05 
2321 1 1 1.88359 0.798998 0.0828348 0 0 0 -0.0115381 -0.00584571 0.0185591 0 0 0 0.462246 0.0588025 0.149768 0.05 
41 1 1 0.151916 0.850979 0.0565099 0 0 0 0.0132691 0.0413634 -0.016962 0 0 0 0.669146 0.396171 -0.524567 0.05 
1510 1 1 0.742829 0.890502 0.0716624 0 0 0 0.016342 0.0160032 -0.00013566 0 0 0 -0.32895 -0.0341738 0.0898608 0.05 
2983 1 1 0.982469 0.840021 0.0782274 0 0 0 -0.0126381 0.0109716 0.00267822 0 0 0 0.101597 0.222844 -0.0642521 0.05 
763 1 1 1.10902 0.833927 0.0667056 0 0 0 -0.00597636 -0.000625021 0.00986438 0 0 0 0.0177451 -0.119321 -0.126498 0.05 
758 1 1 1.23384 0.869846 0.0805911 0 0 0 -0.00289851 -0.014892 0.0149379 0 0 0 0.231481 -0.0571835 0.0501931 0.05 
3020 1 1 1.52934 0.832061 0.101603 0 0 0 -0.00551285 -0.0162015 -0.00223543 0 0 0 -0.0525833 -0.0692373 0.0851219 0.05 
206 1 1 0.458811 0.933393 0.0554786 0 0 0 0.0146617 0.0517623 -0.00309978 0 0 0 -0.88819 -0.209998 0.282849 0.05 
1494 1 1 0.660002 0.94556 0.0835346 0 0 0 0.0109202 0.0534792 0.0106877 0 0 0 -0.21096 0.40423 -0.255587 0.05 
753 1 1 0.87007 0.900258 0.0592484 0 0 0 -0.0122117 0.0134775 -0.0127685 0 0 0 0.160044 -0.0534947 -0.00270475 0.05 
2256 1 1 1.84969 0.894321 0.0703214 0 0 0 0.0010462 -0.0125128 0.0150505 0 0 0 0.245181 -0.076069 -0.054925 0.05 
27 1 1 0.0511501 0.993748 0.0667186 0 0 0 0.00160492 0.0436392 0.0075922 0 0 0 -0.357112 -0.158352 0.050391 0.05 
3089 1 1 0.351439 0.969201 0.0645058 0 0 0 0.0386394 0.0271362 0.00869772 0 0 0 -0.0580484 0.0843538 -0.113534 0.05 
2558 1 1 0.499676 0.12026 0.649602 0 0 0 -0.141656 0.0739791 -0.0861951 -0.151528 -3.68317 7.54148 0.608495 -0.243262 -3.93387 0.05 
772 1 1 1.04453 0.951116 0.0591939 0 0 0 -0.00912171 0.00110122 -0.00682722 0 0 0 0.610657 0.11586 -0.0108561 0.05 
15 1 1 1.17399 0.977536 0.0561197 0 0 0 -0.00533619 -0.00287259 6.52772e-05 0 0 0 0.125362 0.0633141 -0.0621835 0.05 
22 1 1 1.3112 0.977209 0.0838898 0 0 0 -0.0181107 -0.0261218 0.021717 0 0 0 0.516566 -0.171266 -0.0598873 0.05 
3040 1 1 1.75701 0.956235 0.0813129 0 0 0 -0.0159029 -0.0440699 0.018038 0 0 0 1.03269 -0.396592 -0.126627 0.05 
1532 1 1 0.372105 0.0653141 0.148157 0 0 0 -0.0716526 0.038576 -0.048372 0 0 0 -0.232462 1.31825 2.23569 0.05 
2965 1 1 0.192308 0.0990056 0.159362 0 0 0 -0.0125188 -0.0218004 -0.0138978 0 0 0 -0.366691 0.0165308 0.0292567 0.05 
3011 1 1 1.31934 0.0627889 0.132391 0 0 0 -0.0450394 -0.0144044 0.00354061 0 0 0 -0.635376 -0.433653 -0.612002 0.05 
3854 1 1 0.322863 0.164671 0.126065 0 0 0 -0.00653401 -0.00367408 0.0428453 0 0 0 -1.04168 1.15814 0.637275 0.05 
3733 1 1 0.4683 0.159232 0.109427 0 0 0 -0.0540296 0.0400053 -0.0121848 0 0 0 -0.359088 0.177865 1.82522 0.05 
759 1 1 1.46433 0.123173 0.148071 0 0 0 -0.035483 -0.0055393 0.00609671 0 0 0 -0.0535904 0.191872 0.238146 0.05 
115 1 1 1.62751 0.160715 0.114901 0 0 0 -0.0361052 0.00193128 -0.0291255 0 0 0 -0.320475 0.152178 -0.498938 0.05 
797 1 1 1.79039 0.130288 0.124419 0 0 0 -0.0289464 0.0523328 -0.0080044 0 0 0 0.0832222 0.261545 1.46835 0.05 
1031 1 1 0.0585442 0.215096 0.16764 0 0 0 -0.0162849 0.0251084 0.0033178 0 0 0 0.00688627 0.195443 0.254905 0.05 
755 1 1 1.11839 0.182011 0.158283 0 0 0 -0.0554129 0.0128723 0.0371963 0 0 0 -1.46272 1.00179 1.46591 0.05 
1496 1 1 1.22454 0.206516 0.117213 0 0 0 -0.00649337 0.0120215 -0.00286777 0 0 0 -0.134488 -1.08989 -1.51317 0.05 
96 1 1 1.53076 0.206301 0.140246 0 0 0 -0.0186726 -0.0180098 0.00468698 0 0 0 -0.119092 0.453671 -0.267613 0.05 
136 1 1 0.774832 0.251111 0.128582 0 0 0 -0.0845619 0.0231973 0.00786133 0 0 0 0.0535542 0.496791 -0.897584 0.05 
76 1 1 1.71463 0.245342 0.1608 0 0 0 -0.00624112 -0.0161404 -0.00183773 0 0 0 0.0723113 -0.222612 -0.0834962 0.05 
1599 1 1 1.9456 0.238478 0.141379 0 0 0 -0.00154342 -0.00601716 0.00826484 0 0 0 -0.0435038 -0.042012 -0.00228687 0.05 
156 1 1 0.650001 0.30579 0.149575 0 0 0 -0.0696448 0.0179353 0.000383168 0 0 0 0.477365 0.426531 -0.714127 0.05 
2317 1 1 1.53066 0.309685 0.142706 0 0 0 -0.0100421 -0.0170751 0.0010356 0 0 0 -0.0306885 -0.109806 0.0575063 0.05 
3060 1 1 1.81747 0.28723 0.13144 0 0 0 -0.00269969 -0.00867383 -0.00868176 0 0 0 0.00290081 0.157823 0.222391 0.05 
70 1 1 0.28153 0.390993 0.150816 0 0 0 -0.0716702 0.0284512 -0.00884455 0 0 0 0.117141 -0.0419656 0.0166234 0.05 
2275 1 1 0.895608 0.390173 0.128094 0 0 0 -0.0646931 0.0151145 -0.0185099 0 0 0 0.181124 0.158519 0.00366794 0.05 
3778 1 1 1.28739 0.345156 0.163428 0 0 0 -0.0309685 0.00196851 -0.00647015 0 0 0 -0.196521 -0.175108 0.376328 0.05 
3038 1 1 1.43295 0.371323 0.160741 0 0 0 -0.0215363 0.00179789 -0.0153233 0 0 0 0.375916 0.289882 -0.322923 0.05 
2277 1 1 0.576336 0.428235 0.150914 0 0 0 -0.0397245 -0.000688327 0.0154509 0 0 0 0.462806 -0.214274 0.109267 0.05 
3015 1 1 0.709146 0.392121 0.157807 0 0 0 -0.0730273 0.00570365 0.0139321 0 0 0 -0.712499 0.0147609 0.0926495 0.05 
3058 1 1 1.0516 0.392495 0.154368 0 0 0 -0.0544331 -0.00608297 0.0124809 0 0 0 -0.263397 -0.0562471 -0.296045 0.05 
137 1 1 1.5217 0.408951 0.13172 0 0 0 -0.00955717 -0.0105004 0.0022209 0 0 0 0.044114 0.22875 -0.112103 0.05 
2214 1 1 1.63304 0.41813 0.150777 0 0 0 -0.0170035 -0.0275927 0.00421693 0 0 0 0.0646074 0.0792177 -0.042906 0.05 
117 1 1 1.78125 0.39337 0.136357 0 0 0 -0.00690247 -0.0170099 0.00125986 0 0 0 0.0956797 -0.16544 0.00243114 0.05 
1560 1 1 1.94996 0.410171 0.154457 0 0 0 -0.00669794 -0.00376187 -0.000744049 0 0 0 -0.106982 -0.0327659 0.164448 0.05 
3710 1 1 0.115967 0.490428 0.112417 0 0 0 0.00624709 0.0349697 -0.0103682 0 0 0 -0.106811 0.281691 -0.580515 0.05 
2312 1 1 0.35001 0.508638 0.154529 0 0 0 -0.0478116 0.0561343 0.0161708 0 0 0 0.34641 0.175996 0.124838 0.05 
3794 1 1 0.445268 0.460528 0.112234 0 0 0 -0.0411006 0.0417715 -0.0405353 -1.86278 -0.0362664 2.30309 0.185081 0.349431 -0.539643 0.05 
3796 1 1 0.818074 0.485611 0.158132 0 0 0 -0.061027 -0.00276166 0.000882347 0 0 0 0.0230835 -0.212305 -0.421616 0.05 
2318 1 1 1.10993 0.491262 0.161078 0 0 0 -0.0344775 0.001274 -0.00119084 0 0 0 -0.0876816 0.1814 -0.0271999 0.05 
2361 1 1 1.26352 0.451122 0.143759 0 0 0 -0.0316806 -0.00426463 0.00320606 0 0 0 0.0803462 -0.265986 -0.0336997 0.05 
838 1 1 1.71342 0.48717 0.137308 0 0 0 -0.0153414 -0.0187861 -0.000106635 0 0 0 -0.0829324 0.0918247 -0.0918707 0.05 
1579 1 1 1.85885 0.468323 0.143343 0 0 0 -0.00275229 -0.0203439 0.00240079 0 0 0 0.000100776 0.134419 -0.16576 0.05 
795 1 1 0.719739 0.514485 0.15667 0 0 0 -0.0650069 0.019189 -0.0123577 0 0 0 0.304702 0.14717 0.0684914 0.05 
818 1 1 1.20064 0.533219 0.149668 0 0 0 -0.0343862 -0.00234416 -0.00018074 0 0 0 0.0396545 0.0887968 -0.0937389 0.05 
2380 1 1 1.3623 0.499778 0.15839 0 0 0 -0.0171536 -0.00703916 0.000470996 0 0 0 -0.0934268 0.19256 -0.183854 0.05 
2282 1 1 1.5425 0.505557 0.112812 0 0 0 -0.00621828 -0.0103018 0.00777196 0 0 0 -0.101402 0.149289 -0.229697 0.05 
120 1 1 1.94785 0.526054 0.152928 0 0 0 -0.00399869 0.00339483 0.00312001 0 0 0 0.130529 0.0458511 -0.0585062 0.05 
3151 1 1 0.222629 0.61832 0.145475 0 0 0 0.00630559 0.0457647 0.0117264 0 0 0 0.184934 -0.0861889 0.524788 0.05 
3019 1 1 1.31994 0.601527 0.12297 0 0 0 -0.0151926 0.00390457 -0.000562583 0 0 0 0.0301622 -0.0054328 -0.344056 0.05 
2342 1 1 1.44049 0.565274 0.150216 0 0 0 -0.0159276 -0.0247733 -0.00491708 0 0 0 -0.0917526 0.0272169 0.158266 0.05 
2249 1 1 1.59298 0.59538 0.115775 0 0 0 0.00125427 -0.0130959 -0.00883023 0 0 0 -0.120892 -0.0191584 0.0503368 0.05 
1622 1 1 1.68808 0.584902 0.14616 0 0 0 -0.00971304 -0.0197319 0.00398139 0 0 0 -0.0213893 0.114981 -0.053387 0.05 
3102 1 1 1.86412 0.564382 0.111947 0 0 0 0.00346383 -0.00725711 -0.00366425 0 0 0 0.0803582 0.122286 -0.0944433 0.05 
789 1 1 0.535931 0.66698 0.1555 0 0 0 -0.0366955 0.034958 -0.00786987 0 0 0 0.292506 0.0912781 0.218108 0.05 
4434 1 1 1.82064 0.654111 0.140489 0 0 0 0.00304201 -0.0415257 -0.0197764 0 0 0 -0.172482 0.180225 0.199894 0.05 
3862 1 1 1.94388 0.625824 0.161671 0 0 0 0.00117531 -0.0252531 0.0034187 0 0 0 -0.00527399 0.103946 -0.017427 0.05 
83 1 1 0.0970596 0.6967 0.165754 0 0 0 -0.0235611 0.0500825 0.000611622 0 0 0 -0.248796 -0.149569 -0.138325 0.05 
52 1 1 0.880381 0.716157 0.15135 0 0 0 -0.0235748 0.0176364 0.00691878 0 0 0 -0.258832 0.247344 0.05345 0.05 
1515 1 1 1.23934 0.711408 0.128471 0 0 0 -0.0109956 9.56896e-05 0.00684843 0 0 0 -0.274485 -0.0635247 -0.254568 0.05 
2299 1 1 1.60556 0.693951 0.138004 0 0 0 -0.0160819 -0.0197677 0.00980707 0 0 0 0.0119626 -0.0854289 0.0671025 0.05 
202 1 1 1.72183 0.679326 0.148752 0 0 0 -0.00327191 -0.0197944 -0.00807994 0 0 0 0.0539818 0.0900814 -0.141056 0.05 
128 1 1 0.306155 0.786256 0.141933 0 0 0 0.00206074 0.0419453 0.0216771 0 0 0 -0.139882 0.438642 -0.1392 0.05 
3756 1 1 0.97559 0.755247 0.147867 0 0 0 -0.0190311 0.0105799 0.00832379 0 0 0 -0.170851 0.150933 -0.339856 0.05 
2363 1 1 1.92676 0.720298 0.128322 0 0 0 -0.00178954 0.00239377 -0.00314113 0 0 0 0.0139873 0.285977 -0.136971 0.05 
3749 1 1 0.462718 0.815742 0.138488 0 0 0 -0.0213352 0.0559666 0.00320697 0 0 0 0.241273 -0.15336 -0.0773508 0.05 
2986 1 1 1.0867 0.781389 0.149339 0 0 0 -0.0209071 -0.000481045 0.00796123 0 0 0 -0.107074 0.0925677 -0.0735543 0.05 
2243 1 1 1.28949 0.815015 0.16161 0 0 0 -0.00957628 -0.00177904 -0.0025073 0 0 0 -0.262241 -0.0796925 0.088045 0.05 
800 1 1 1.67793 0.772471 0.135157 0 0 0 -0.00462385 -0.0273031 0.0111023 0 0 0 0.0684869 0.119237 -0.120028 0.05 
2955 1 1 1.7524 0.859872 0.118722 0 0 0 -0.0107935 -0.0205812 0.0145978 0 0 0 0.0272356 0.0947471 0.137767 0.05 
2371 1 1 0.238552 0.92151 0.157541 0 0 0 0.0239717 0.0423935 0.0104587 0 0 0 0.163551 0.362062 0.24546 0.05 
1612 1 1 0.351726 0.903714 0.152787 0 0 0 -0.00398632 0.0470198 0.0188485 0 0 0 0.484512 -0.580468 0.304304 0.05 
812 1 1 1.22282 0.935243 0.161375 0 0 0 -0.0011839 -0.00733147 0.0141102 0 0 0 -0.250477 0.0194021 -0.183305 0.05 
2981 1 1 1.43152 0.920156 0.150816 0 0 0 -0.000369355 -0.0171858 -0.0191363 0 0 0 0.521134 -0.140806 -0.021242 0.05 
3860 1 1 1.66114 0.914229 0.137346 0 0 0 0.0137357 -0.0245201 0.0190038 0 0 0 -0.0771006 0.398767 0.0690578 0.05 
1624 1 1 0.150795 0.970608 0.150895 0 0 0 0.0159512 0.0418874 0.00782475 0 0 0 -0.0692968 -0.508832 -0.166337 0.05 
3234 1 1 1.48616 0.984678 0.625143 0 0 0 0.00783071 -0.0236072 -0.0256693 0 0 0 0.102106 0.0326647 0.412037 0.05 
3039 1 1 1.52115 0.96334 0.140634 0 0 0 -0.0176984 -0.0263969 0.0112667 0 0 0 0.194849 -0.340092 -0.0477073 0.05 
2331 1 1 0.280389 0.0518772 0.231559 0 0 0 -0.10348 -0.0046941 0.0631505 0 0 0 0.256199 1.39992 -1.51275 0.05 
1613 1 1 0.496764 0.077075 0.217261 0 0 0 -0.0119705 0.0371777 0.0671494 0 0 0 -0.627468 -1.00748 -1.37774 0.05 
3140 1 1 1.23308 0.0822954 0.196963 0 0 0 -0.0938482 0.0270045 -0.0202237 0 0 0 0.855804 -0.0607628 -0.704 0.05 
878 1 1 1.6915 0.0917966 0.208326 0 0 0 -0.0398113 -0.0367205 0.00954884 0 0 0 -0.357791 -0.37275 -0.97632 0.05 
1574 1 1 1.85878 0.0542931 0.168048 0 0 0 -0.0246331 -0.0277523 -0.00567368 0 0 0 0.196684 -0.137456 -1.91406 0.05 
1677 1 1 0.820955 0.147696 0.174084 0 0 0 -0.0661758 -0.021453 -0.00622426 0 0 0 -0.533686 1.02794 2.1674 0.05 
3139 1 1 1.87226 0.155536 0.180189 0 0 0 -0.0110901 -0.0280838 0.00536852 0 0 0 -0.104873 -0.175158 -0.199913 0.05 
3134 1 1 0.239982 0.198272 0.192199 0 0 0 0.0160456 0.0380445 -0.025607 0 0 0 0.239086 0.442764 -0.502061 0.05 
3096 1 1 0.451291 0.203271 0.204276 0 0 0 -0.0662669 0.0192244 0.0350211 0 0 0 -0.156519 -1.36495 0.777507 0.05 
3199 1 1 0.68667 0.184206 0.186441 0 0 0 -0.0874713 0.00410694 -0.0203286 0 0 0 0.128924 -0.270394 1.20152 0.05 
1595 1 1 1.30974 0.172588 0.202956 0 0 0 -0.0396667 -0.00962527 -0.0129547 0 0 0 -0.0893284 -0.130548 1.25318 0.05 
3757 1 1 0.991648 0.227118 0.172182 0 0 0 -0.0981141 -0.0160268 -0.00436666 0 0 0 0.0516478 0.0349664 0.459478 0.05 
3817 1 1 1.34059 0.26965 0.215811 0 0 0 -0.0372287 0.000435546 -0.0210237 0 0 0 0.242704 0.131725 -0.0418142 0.05 
898 1 1 1.62854 0.234492 0.212839 0 0 0 -0.0198477 -0.0131885 -0.00932966 0 0 0 0.217005 0.197236 -0.209297 0.05 
3732 1 1 0.147062 0.311393 0.189721 0 0 0 -0.0272701 0.0375488 -0.0634124 0 0 0 1.34719 0.76175 -0.290128 0.05 
3715 1 1 0.528358 0.320612 0.18344 0 0 0 -0.052645 0.0381436 0.00366231 0 0 0 -0.233254 0.735416 0.425026 0.05 
792 1 1 0.899037 0.280528 0.196855 0 0 0 -0.0755209 0.00628097 -0.0283135 0 0 0 -0.392839 -0.64529 -0.158573 0.05 
833 1 1 1.10361 0.282418 0.198266 0 0 0 -0.0779038 -0.00421905 -0.0164241 0 0 0 -0.221576 0.606189 -0.431437 0.05 
858 1 1 1.76575 0.325195 0.209327 0 0 0 -0.00693793 -0.00984409 0.00548953 0 0 0 -0.0463479 0.0248216 0.0460239 0.05 
1540 1 1 1.9196 0.322696 0.19814 0 0 0 -0.00861728 -0.0206257 -4.36824e-05 0 0 0 0.112316 -0.140034 -0.143348 0.05 
791 1 1 0.376902 0.364513 0.171052 0 0 0 -0.00264985 0.0192927 0.00704194 0 0 0 -0.452485 -0.375892 -0.713722 0.05 
2288 1 1 0.0706733 0.476738 0.205973 0 0 0 -0.00513462 0.0575048 -0.00408387 0 0 0 -0.0777086 -0.468203 0.434105 0.05 
3822 1 1 1.50414 0.473046 0.217433 0 0 0 -0.0180884 -0.00191987 -0.00374494 0 0 0 0.218783 -0.157083 0.351418 0.05 
3143 1 1 1.75488 0.445667 0.220405 0 0 0 -0.0155711 -0.016592 0.00227695 0 0 0 -0.0131347 -0.0131939 0.0415806 0.05 
1493 1 1 0.253925 0.523689 0.181383 0 0 0 0.0103788 0.0890143 0.0381839 0 0 0 -0.347567 -0.179759 -0.513224 0.05 
3758 1 1 0.977635 0.535086 0.174914 0 0 0 -0.0437042 0.0141135 -0.005587 0 0 0 0.17857 0.0429061 0.158488 0.05 
2382 1 1 1.6216 0.514159 0.199269 0 0 0 -0.00300236 -0.00755203 0.00169538 0 0 0 -0.116076 0.0137657 -0.299745 0.05 
2362 1 1 1.80053 0.540222 0.208768 0 0 0 -0.00647688 -0.01531 -0.00304067 0 0 0 -0.138367 -0.0616585 -0.0022825 0.05 
1520 1 1 0.100272 0.598241 0.1978 0 0 0 0.00197318 0.0521982 -0.0140375 0 0 0 -0.113286 0.0614185 0.0602552 0.05 
1498 1 1 0.454556 0.570458 0.174403 0 0 0 -0.0372999 0.0156454 -0.00927252 0 0 0 0.0219969 0.0582439 -0.590677 0.05 
3815 1 1 0.609458 0.613143 0.214293 0 0 0 -0.046325 0.0173833 0.00329099 0 0 0 0.414808 0.0954117 0.372184 0.05 
1576 1 1 1.10239 0.588539 0.211733 0 0 0 -0.0379821 -0.00294931 0.00446538 0 0 0 0.358445 -0.430788 -0.260687 0.05 
793 1 1 0.720136 0.637872 0.183044 0 0 0 -0.0450841 0.0411439 -0.000144398 0 0 0 0.0544492 0.107467 0.580408 0.05 
3776 1 1 0.912794 0.61491 0.201927 0 0 0 -0.0350999 0.00848466 0.00194036 0 0 0 -0.341779 0.181833 -0.550425 0.05 
2298 1 1 1.18511 0.630424 0.171257 0 0 0 -0.0198748 0.00062612 0.00443246 0 0 0 0.268468 0.419137 -0.268402 0.05 
839 1 1 1.36687 0.619725 0.213743 0 0 0 -0.0123468 -0.0154299 0.0017578 0 0 0 -0.131403 -0.0206638 -0.260711 0.05 
3163 1 1 1.52365 0.633336 0.177348 0 0 0 -0.00966323 -0.0308458 -0.0110097 0 0 0 -0.0312502 -0.0408606 -0.055724 0.05 
2268 1 1 0.292442 0.685402 0.17242 0 0 0 0.00582321 0.0576442 0.00387612 0 0 0 0.0474277 0.193884 0.10511 0.05 
773 1 1 1.12239 0.705303 0.208439 0 0 0 -0.0223356 -0.00248655 0.0115905 0 0 0 0.00844337 0.0179144 -0.0830433 0.05 
3818 1 1 1.39973 0.706199 0.174453 0 0 0 -0.00787324 -0.0215578 0.0130618 0 0 0 0.0277384 0.112757 0.0185024 0.05 
3030 1 1 0.199665 0.752277 0.180363 0 0 0 -0.00247638 0.0735617 0.0113357 0 0 0 -0.0460262 0.208467 0.223505 0.05 
775 1 1 1.51589 0.74921 0.184985 0 0 0 -0.0111784 -0.0179536 0.00718207 0 0 0 -0.0757881 0.185701 0.115334 0.05 
78 1 1 1.82502 0.735402 0.202776 0 0 0 0.00125774 -0.0240996 -0.00122239 0 0 0 0.0699718 -0.118841 -0.23153 0.05 
2990 1 1 0.0538089 0.824373 0.210555 0 0 0 -0.00777845 0.0464919 -0.00709324 0 0 0 0.0916524 0.605946 0.233409 0.05 
1669 1 1 0.159418 0.844614 0.17544 0 0 0 -0.005692 0.0720659 0.00127357 0 0 0 -0.50335 -0.443342 -0.467717 0.05 
1531 1 1 1.18493 0.799765 0.190904 0 0 0 -0.0132065 -0.0130184 0.0142929 0 0 0 0.100726 -0.0565984 -0.0886568 0.05 
837 1 1 1.70696 0.822347 0.216972 0 0 0 -0.0245725 -0.0373117 0.0114771 0 0 0 -0.130437 -0.253006 -0.284469 0.05 
97 1 1 1.94371 0.808749 0.177806 0 0 0 0.0161088 -0.0797399 -0.0040203 0 0 0 0.0409388 -0.110164 0.0159955 0.05 
2980 1 1 0.569876 0.852192 0.175773 0 0 0 -0.0278021 0.0586584 0.0292707 0 0 0 0.401047 0.448776 -0.821759 0.05 
2973 1 1 0.779949 0.845531 0.178292 0 0 0 -0.0243516 0.0206648 0.00575682 0 0 0 -0.172416 0.0915793 0.267733 0.05 
1551 1 1 0.904406 0.839943 0.170312 0 0 0 -0.0106928 0.0218329 -0.00787041 0 0 0 -0.0402958 -0.00190929 0.0037421 0.05 
2252 1 1 1.11212 0.881948 0.173799 0 0 0 -0.00686165 0.000579421 0.0133014 0 0 0 -0.0336866 0.0666548 -0.240492 0.05 
2276 1 1 1.46732 0.847243 0.209563 0 0 0 -0.00911153 -0.0328479 -0.00645998 0 0 0 -0.441503 -0.169735 -0.217128 0.05 
33 1 1 1.60261 0.826246 0.19532 0 0 0 -0.00295587 -0.0279238 0.0163824 0 0 0 0.385183 -0.0378929 -0.00553604 0.05 
3694 1 1 1.83997 0.839695 0.177293 0 0 0 -0.00232804 -0.0264728 -0.00962085 0 0 0 -0.430844 0.117971 -0.120753 0.05 
3704 1 1 0.0567502 0.922039 0.167916 0 0 0 0.00211104 0.0240016 -0.00478921 0 0 0 0.135613 0.311219 -0.427044 0.05 
2996 1 1 1.76153 0.912865 0.210159 0 0 0 0.00249924 -0.0337129 -0.00991677 0 0 0 -0.31979 0.196071 -0.160729 0.05 
2300 1 1 1.89621 0.926365 0.172 0 0 0 -0.00183945 -0.023396 -0.00228666 4.96541 -10.3686 0.5897 0.158344 -0.516218 0.943855 0.05 
2233 1 1 0.950361 0.957082 0.201833 0 0 0 0.00196774 0.00740448 -0.00456977 0 0 0 0.484248 -0.397229 0.235601 0.05 
771 1 1 1.31154 0.983487 0.19428 0 0 0 -0.00506949 -0.0359445 0.0170893 0 0 0 -0.2286 0.161646 -0.00265105 0.05 
92 1 1 0.114418 0.0565028 0.242125 0 0 0 -0.0741874 0.0503664 -0.148814 0 0 0 0.109901 0.668155 -2.75967 0.05 
2421 1 1 1.436 0.0530505 0.2326 0 0 0 -0.0746905 0.0223017 -0.0283176 0 0 0 -0.384937 -0.529331 -1.78599 0.05 
3755 1 1 0.702644 0.108426 0.252496 0 0 0 -0.167561 -0.0383184 -0.00877512 0 0 0 0.433836 0.349137 -7.83806 0.05 