ITEM: TIMESTEP
0
ITEM: NUMBER OF ATOMS
3068
ITEM: BOX BOUNDS pp pp pp
0 2
0 2
0 2
ITEM: ATOMS id type type x y z ix iy iz vx vy vz fx fy fz omegax omegay omegaz radius 
74 1 1 0.996123 0.27765 0.0537715 0 0 0 -0.081949 -0.00815025 0.00363245 0 0 0 0.346434 -0.839987 -0.827461 0.05 
1586 1 1 0.41515 0.369603 0.0590707 0 0 0 -0.00557236 0.00769465 0.0466951 0 0 0 -0.197609 0.325799 -1.62119 0.05 
1050 1 1 1.34442 0.356287 0.0509222 0 0 0 -0.0249006 -0.0238146 0.00539984 0 0 0 0.321675 -0.39786 0.33914 0.05 
1049 1 1 0.974669 0.479061 0.0540938 0 0 0 -0.0159985 0.00236399 0.00728683 0 0 0 -0.0936221 -0.383728 -0.290762 0.05 
1592 1 1 1.80858 0.488712 0.0520022 0 0 0 0.00552833 -0.00115357 -0.00462302 0 0 0 0.809463 0.399411 -0.392645 0.05 
1690 1 1 1.34722 0.57397 0.0533592 0 0 0 0.00037092 -0.00547915 0.0042349 0 0 0 0.147224 -0.605307 -0.297272 0.05 
27 1 1 1.83417 0.601392 0.0510369 0 0 0 0.00126629 -0.0404524 0.00452855 0 0 0 0.493095 -0.110927 0.16707 0.05 
1746 1 1 0.560635 0.778097 0.0515974 0 0 0 -0.0428996 0.0339648 -0.00199438 0 0 0 0.127401 0.0786438 -0.550995 0.05 
532 1 1 1.61358 0.744395 0.0506182 0 0 0 0.0420023 -0.0176832 -0.0123301 0 0 0 0.739225 0.352401 -1.24518 0.05 
1551 1 1 1.33732 0.880131 0.052287 0 0 0 -0.027709 -0.0108355 -0.0102007 0 0 0 0.232808 0.415804 -0.213389 0.05 
2064 1 1 0.184769 0.0522081 0.053237 0 0 0 -0.177657 0.0774878 -0.0504941 0 0 0 -0.286317 1.07567 -6.63559 0.05 
71 1 1 1.05565 0.103129 0.0756829 0 0 0 -0.128977 -0.0119364 -0.0130597 0 0 0 -0.748202 1.04478 -0.514629 0.05 
1549 1 1 1.15082 0.0539276 0.0528306 0 0 0 -0.0912072 -0.0164739 -0.0323161 0 0 0 -0.715246 -0.392671 0.791481 0.05 
39 1 1 1.25918 0.080317 0.050358 0 0 0 -0.068016 0.0494647 0.0695896 0 0 0 -0.387915 -2.01968 -2.35862 0.05 
1061 1 1 1.66739 0.0617604 0.0674229 0 0 0 -0.0409397 -0.0156225 -0.00329214 0 0 0 0.132623 -0.101697 0.715363 0.05 
11 1 1 1.90476 0.107638 0.0503437 0 0 0 -0.00364077 -0.0571476 -0.030113 0 0 0 0.282733 0.242442 0.491149 0.05 
2166 1 1 1.56582 0.119068 0.0603896 0 0 0 0.00112715 -0.00687572 0.00854684 0 0 0 -0.0534829 -0.499612 0.152812 0.05 
33 1 1 0.050472 0.20583 0.104776 0 0 0 0.0540389 0.0717141 0.0254688 0 0 0 -0.126148 0.285081 -2.34851 0.05 
2070 1 1 0.62666 0.199134 0.094762 0 0 0 -0.127268 -0.00977325 -0.0114976 0 0 0 -0.81291 -1.65719 0.322484 0.05 
2116 1 1 0.916061 0.182818 0.0622946 0 0 0 -0.0793495 -0.0139179 -0.0158091 0 0 0 1.17269 -0.0567523 -0.435623 0.05 
2567 1 1 1.14771 0.199056 0.0637238 0 0 0 -0.102016 0.00181624 -0.026853 0 0 0 -0.534584 -0.023387 0.172872 0.05 
2648 1 1 1.32089 0.168405 0.0820213 0 0 0 -0.00724608 -0.0151258 0.0589183 0 0 0 -0.0651897 -0.701203 0.82746 0.05 
2071 1 1 1.6648 0.173951 0.0639304 0 0 0 -0.0378182 -0.0128558 0.00618402 0 0 0 -0.291283 0.184221 -1.05235 0.05 
605 1 1 1.86558 0.199645 0.0568953 0 0 0 -0.0149438 0.00338591 0.00190092 0 0 0 0.305153 0.124962 -0.520692 0.05 
1075 1 1 0.226686 0.27131 0.0847453 0 0 0 -4.35579e-05 0.00573264 -0.00732469 0 0 0 0.161861 -0.871194 -1.72961 0.05 
1580 1 1 0.332555 0.268576 0.0627894 0 0 0 0.0120135 -0.0169186 -0.0577167 0 0 0 -0.573096 1.52628 1.21961 0.05 
571 1 1 1.43442 0.260605 0.0658329 0 0 0 -0.0244525 -0.00768176 0.0218386 0 0 0 0.418308 -0.528488 0.27104 0.05 
2615 1 1 1.72982 0.276183 0.0689215 0 0 0 -0.00580749 0.0110993 0.0381857 0 0 0 -0.253583 0.0134902 0.682369 0.05 
581 1 1 0.497723 0.290612 0.0847349 0 0 0 -0.162178 0.0216686 -0.00104912 0 0 0 -2.17624 -1.79912 -0.655582 0.05 
2103 1 1 0.856972 0.311868 0.106957 0 0 0 -0.0449446 -0.0345843 -0.0120077 0 0 0 0.406949 0.197259 -0.109371 0.05 
1593 1 1 1.61914 0.312698 0.0650471 0 0 0 -0.0362861 0.0118207 -0.0388186 0 0 0 -0.0906186 -0.527322 0.181278 0.05 
2726 1 1 1.94327 0.314391 0.0656008 0 0 0 -0.0228466 -0.0216363 0.00601242 0 0 0 0.382753 0.112942 0.407754 0.05 
2098 1 1 0.153001 0.382437 0.0961335 0 0 0 0.000154366 0.057909 0.0319788 0 0 0 -1.29065 -1.51131 -0.109456 0.05 
1038 1 1 1.03677 0.384824 0.0630178 0 0 0 -0.0241544 -0.000114678 0.00790729 0 0 0 -0.125501 0.0371852 0.0535766 0.05 
535 1 1 1.18475 0.342605 0.0574023 0 0 0 -0.0525556 -0.025374 0.00233529 0 0 0 -0.542701 -0.261931 0.17883 0.05 
1577 1 1 1.50375 0.341495 0.0672648 0 0 0 -0.0261311 -0.0147609 -0.0158912 0 0 0 0.218202 -0.0937552 0.0941551 0.05 
1560 1 1 0.0545026 0.462185 0.0947392 0 0 0 0.0489523 0.0870162 0.073995 0 0 0 -1.46761 -1.65785 1.57452 0.05 
85 1 1 0.22112 0.456639 0.0919029 0 0 0 0.0444702 0.0701381 0.0545134 0 0 0 -1.11649 -1.46489 -0.637012 0.05 
1097 1 1 0.541773 0.399985 0.106254 0 0 0 -0.06984 0.012108 0.0207244 0 0 0 0.502835 0.0184804 -0.740443 0.05 
1039 1 1 0.686069 0.406154 0.0795272 0 0 0 -0.0438551 0.0115426 0.0138209 0 0 0 0.0200775 -1.45281 -0.0719637 0.05 
2680 1 1 1.73442 0.432255 0.0953895 0 0 0 0.00404499 -0.0443905 -0.00829754 0 0 0 0.342794 0.426823 0.0556464 0.05 
1555 1 1 1.84845 0.38408 0.08362 0 0 0 0.000964665 -0.0316465 -0.0202053 0 0 0 -0.341785 0.144957 0.0294852 0.05 
549 1 1 0.363645 0.465464 0.0865974 0 0 0 0.0431333 0.0749169 -0.00101393 0 0 0 1.36614 0.486258 0.205212 0.05 
13 1 1 0.462075 0.496975 0.0763334 0 0 0 -0.0703399 0.0491769 0.0150912 0 0 0 -0.832275 -0.474602 0.215864 0.05 
526 1 1 0.841363 0.463216 0.0970171 0 0 0 -0.0351137 0.000605142 0.0203 0 0 0 0.428897 -0.826994 0.446783 0.05 
15 1 1 1.1628 0.440503 0.0599822 0 0 0 -0.0239122 -0.0185898 0.0101595 0 0 0 0.138932 -0.301983 -0.13326 0.05 
2086 1 1 1.28253 0.456831 0.075634 0 0 0 -0.00841987 0.0176428 0.00590805 0 0 0 -0.0738213 -0.305659 -0.878756 0.05 
1042 1 1 1.42031 0.462106 0.0733194 0 0 0 -0.021852 -0.00504244 -0.00771125 0 0 0 0.18035 0.431406 -0.000178797 0.05 
587 1 1 1.61003 0.474541 0.0840124 0 0 0 -0.016464 -0.0100108 0.00404809 0 0 0 0.733478 -0.879648 0.238019 0.05 
2055 1 1 0.253477 0.55434 0.0833529 0 0 0 0.0563938 0.092795 -0.053015 0 0 0 -0.911808 0.578645 0.511419 0.05 
563 1 1 1.08368 0.552462 0.0989729 0 0 0 -0.0143933 -0.00206704 0.0320838 0 0 0 0.197435 -0.395451 -0.507508 0.05 
2677 1 1 1.69986 0.537647 0.0796368 0 0 0 -0.0262724 -0.0274835 -0.000780706 0 0 0 1.34811 0.393519 -0.0553698 0.05 
1111 1 1 0.123924 0.564645 0.0752612 0 0 0 0.0414875 0.0317691 -0.000681125 0 0 0 -0.0773411 -0.0236589 1.09734 0.05 
17 1 1 1.22399 0.556748 0.0995038 0 0 0 -0.0141147 0.00237605 -0.000241314 0 0 0 -0.149721 0.017872 0.0148804 0.05 
1609 1 1 1.52591 0.570412 0.0866589 0 0 0 0.000592434 -0.0326266 0.00641423 0 0 0 0.839924 -0.39434 -0.2717 0.05 
2082 1 1 0.735202 0.612783 0.065911 0 0 0 -0.0213859 0.00544287 -0.00718644 0 0 0 -0.172092 0.482483 0.174315 0.05 
610 1 1 0.842543 0.632312 0.0681258 0 0 0 -0.015487 0.0493612 -0.0144104 0 0 0 -0.0203924 0.140924 -0.432311 0.05 
1142 1 1 1.68077 0.63817 0.0866719 0 0 0 -0.010455 -0.0380571 -0.00261716 0 0 0 0.432675 -0.940188 1.0238 0.05 
1066 1 1 1.34577 0.681644 0.059746 0 0 0 0.020749 0.00855583 -0.0207413 0 0 0 0.30389 -0.344778 0.122141 0.05 
2138 1 1 1.78661 0.698431 0.0725267 0 0 0 -0.00419433 -0.0208143 -0.0128563 0 0 0 -0.502358 -0.343128 -0.299031 0.05 
1202 1 1 0.0839566 0.801732 0.0698734 0 0 0 -0.0308405 0.037072 0.0533939 0 0 0 -1.46782 -0.610726 -0.383058 0.05 
1668 1 1 0.179229 0.870518 0.0694996 0 0 0 0.023003 0.0728346 -0.0108721 0 0 0 -1.07598 0.0508597 -0.673204 0.05 
103 1 1 0.331082 0.861893 0.100447 0 0 0 -0.0491766 0.0299343 -0.0116283 0 0 0 -2.14027 0.0402068 -0.524093 0.05 
1184 1 1 0.549005 0.891741 0.0922849 0 0 0 0.0209883 0.0595202 0.0207682 0 0 0 0.453616 0.392991 0.75884 0.05 
2119 1 1 1.54526 0.906174 0.0508262 0 0 0 0.03008 -0.0509064 -0.0392556 0 0 0 0.166843 -0.302736 -0.676565 0.05 
2126 1 1 0.943673 0.843138 0.645142 0 0 0 -0.00916952 0.0187585 -0.0250625 0 0 0 0.312448 -0.72466 -0.136168 0.05 
1547 1 1 0.80428 0.972089 0.0967784 0 0 0 0.0216487 0.0750237 -0.0102701 0 0 0 -0.539238 -0.865772 0.286993 0.05 
2231 1 1 1.88331 0.975239 0.0713999 0 0 0 0.0209295 -0.060395 -0.0136991 0 0 0 0.534005 0.0460605 0.456641 0.05 
1572 1 1 0.445504 0.0634806 0.112326 0 0 0 -0.137072 0.0337903 -0.00379699 0 0 0 -0.221103 -1.75106 -4.61842 0.05 
604 1 1 1.53817 0.0560134 0.147335 0 0 0 -0.0755341 -0.0203694 0.0199008 0 0 0 -0.887035 -0.389295 0.416639 0.05 
1591 1 1 1.79523 0.0619273 0.129089 0 0 0 -0.0193732 -0.00901508 0.0390607 0 0 0 -0.109776 -1.02757 -1.8252 0.05 
582 1 1 0.127725 0.112208 0.127011 0 0 0 -0.0820618 -0.0429744 0.0690094 0 0 0 0.923269 0.883537 2.47806 0.05 
695 1 1 0.572895 0.115095 0.179729 0 0 0 -0.106576 -0.00941036 0.0499531 0 0 0 -0.457398 -1.35303 1.55935 0.05 
2592 1 1 0.697597 0.138919 0.1537 0 0 0 -0.159897 0.0108663 -0.040853 0 0 0 -0.746282 -1.93169 -2.04797 0.05 
1608 1 1 1.45614 0.107668 0.115843 0 0 0 -0.0821202 -0.0317533 -0.00388865 0 0 0 0.803946 -0.363067 -0.249551 0.05 
1654 1 1 0.288034 0.174323 0.153623 0 0 0 -0.116711 0.01041 -0.0287246 0 0 0 0.534658 0.0569533 -0.350718 0.05 
121 1 1 0.455523 0.204736 0.126657 0 0 0 -0.0634297 0.0530294 -0.0256774 0 0 0 0.617384 -0.018188 1.26563 0.05 
602 1 1 1.50684 0.209578 0.126536 0 0 0 -0.0134751 -0.0215237 -0.0058899 0 0 0 -0.303387 -0.1723 0.103723 0.05 
44 1 1 1.76989 0.197149 0.137296 0 0 0 -0.000754643 -0.0137463 -0.01773 0 0 0 -0.561318 -0.239039 -0.392917 0.05 
1080 1 1 1.94084 0.19845 0.133033 0 0 0 -0.0211439 0.00328957 -0.0111512 0 0 0 -0.290334 -0.166395 -0.429182 0.05 
1081 1 1 1.67138 0.269149 0.151801 0 0 0 -0.0215041 0.00532107 0.0102075 0 0 0 -0.693848 -0.0685667 0.0274903 0.05 
636 1 1 1.85497 0.263813 0.14364 0 0 0 0.00183534 -0.0514077 0.00627034 0 0 0 -0.227707 -0.352839 0.0625816 0.05 
37 1 1 0.0688407 0.369433 0.148916 0 0 0 0.0618437 0.105116 0.0141487 0 0 0 -0.742823 0.560479 2.08708 0.05 
1047 1 1 0.619869 0.338667 0.146916 0 0 0 -0.0728302 0.0175736 0.0350555 0 0 0 0.296837 1.17807 -0.9207 0.05 
1044 1 1 1.1076 0.421357 0.148017 0 0 0 -0.0507007 0.03971 0.00848084 0 0 0 -0.22698 0.648449 -0.345638 0.05 
618 1 1 1.78583 0.484634 0.166563 0 0 0 0.0100482 -0.0303562 0.021966 0 0 0 0.227635 -0.444421 -0.072044 0.05 
1657 1 1 1.9261 0.467521 0.127295 0 0 0 0.0132058 -0.0178677 -0.00633951 0 0 0 0.514462 -0.60456 -0.471361 0.05 
1096 1 1 0.0757035 0.531013 0.188797 0 0 0 -0.0335452 0.0542984 0.102852 0 0 0 -0.0295287 -1.25746 -1.59811 0.05 
24 1 1 0.914907 0.559486 0.126546 0 0 0 -0.039156 0.0382673 0.0155566 0 0 0 0.445858 0.162103 -0.3552 0.05 
557 1 1 1.43188 0.53906 0.155601 0 0 0 -0.0127772 -0.0519996 -0.00157798 0 0 0 0.0343981 0.30986 -0.371307 0.05 
1663 1 1 0.401449 0.617848 0.126223 0 0 0 -0.0108984 0.0336452 -0.00161582 0 0 0 -0.789753 -1.32228 -0.768252 0.05 
1627 1 1 1.92917 0.582058 0.132185 0 0 0 0.0164659 -0.00796178 0.00582545 0 0 0 0.0900537 0.0176174 -0.193909 0.05 
1639 1 1 1.41132 0.659312 0.143943 0 0 0 -0.0487172 0.00958461 -0.00518494 0 0 0 0.307498 0.290467 0.580668 0.05 
2599 1 1 1.58004 0.60977 0.162511 0 0 0 0.00769449 -0.0551909 0.0273383 0 0 0 -0.834075 -0.271037 -0.888101 0.05 
1587 1 1 0.216918 0.730608 0.110254 0 0 0 0.00916157 0.0429402 -0.0413909 0 0 0 -0.655886 -2.56701 -0.891351 0.05 
1062 1 1 0.872376 0.730145 0.127932 0 0 0 -0.0105541 0.0343378 -0.048668 0 0 0 -0.568196 -0.464859 -0.316391 0.05 
72 1 1 0.350696 0.761051 0.153034 0 0 0 -0.051423 0.10915 -0.0352514 0 0 0 -0.173571 -0.0559101 -0.111727 0.05 
1030 1 1 0.982154 0.738737 0.111563 0 0 0 -0.0325265 0.024015 -0.0158883 0 0 0 0.434765 0.57007 0.33428 0.05 
18 1 1 1.07889 0.798077 0.127277 0 0 0 -0.0493938 0.0538365 -0.0495286 0 0 0 0.51991 -0.484173 -1.0249 0.05 
2099 1 1 1.27388 0.818917 0.158362 0 0 0 0.0224561 -0.0269901 0.023625 0 0 0 0.526225 -0.101482 -0.506895 0.05 
518 1 1 0.699466 0.85786 0.10858 0 0 0 -0.00625655 0.0353537 -0.0263292 0 0 0 -0.577207 -0.497711 0.170947 0.05 
1116 1 1 1.69468 0.843904 0.158724 0 0 0 -0.022419 -0.0149202 -0.0114934 0 0 0 0.254487 -0.287234 1.21141 0.05 
2062 1 1 1.44703 0.909863 0.133312 0 0 0 -0.00448498 -0.0442046 -0.0352304 0 0 0 0.374481 -0.181181 -0.740446 0.05 
60 1 1 1.78823 0.884697 0.114632 0 0 0 -0.00660837 -0.0573941 -0.000981775 0 0 0 1.28911 0.166089 -0.172144 0.05 
138 1 1 1.68578 0.0523042 0.191657 0 0 0 -0.0461433 0.00397548 0.00500397 0 0 0 -0.638733 0.844639 -2.68211 0.05 
2659 1 1 1.88592 0.0524615 0.192493 0 0 0 -0.0333907 0.00156589 -0.0164438 0 0 0 0.345142 0.342215 -3.18003 0.05 
1079 1 1 1.23965 0.0584905 0.190255 0 0 0 -0.0997332 -0.0210165 -0.0453952 0 0 0 3.10399 -0.938615 -4.28602 0.05 
2184 1 1 1.21116 0.167595 0.176047 0 0 0 -0.0409303 0.025263 0.0130014 0 0 0 -0.460498 0.598167 0.533866 0.05 
1112 1 1 1.62687 0.139237 0.173111 0 0 0 -0.0444709 0.0417319 -0.0210399 0 0 0 -0.233086 -0.380792 1.65274 0.05 
25 1 1 1.83504 0.146725 0.207453 0 0 0 -0.00842724 0.0340422 0.0285006 0 0 0 0.518759 0.136416 1.46145 0.05 
2675 1 1 0.656113 0.225135 0.23022 0 0 0 -0.125621 0.0859276 0.0499226 0 0 0 1.44569 1.73604 1.12786 0.05 
1641 1 1 0.990099 0.1727 0.179322 0 0 0 -0.0815313 0.0258481 0.00596134 0 0 0 0.170481 0.671105 0.140262 0.05 
1084 1 1 1.41222 0.19116 0.18786 0 0 0 -0.0238347 -0.0338491 0.0144517 0 0 0 -0.910092 -0.0900468 -0.0521679 0.05 
1570 1 1 0.158664 0.238278 0.214258 0 0 0 -0.0944664 0.008591 -0.0335338 0 0 0 0.739957 0.677868 1.42529 0.05 
1674 1 1 0.777553 0.244802 0.216848 0 0 0 -0.0919719 0.00271081 0.0466154 0 0 0 0.512478 2.31281 0.653536 0.05 
2088 1 1 1.29035 0.26421 0.180578 0 0 0 -0.0470538 0.032957 -0.0236829 0 0 0 0.918282 0.105209 -0.080584 0.05 
2160 1 1 1.47535 0.270789 0.212636 0 0 0 -0.0452832 -0.0169703 0.0152747 0 0 0 0.614786 -0.720695 0.0640343 0.05 
1121 1 1 0.234489 0.3069 0.197161 0 0 0 -0.0950978 -0.0228182 0.0194573 0 0 0 -0.523614 -0.393925 0.0315796 0.05 
525 1 1 1.38677 0.314284 0.174802 0 0 0 -0.0468314 -0.0336191 0.00447178 0 0 0 -0.212163 0.271538 0.515546 0.05 
41 1 1 1.94256 0.287722 0.188812 0 0 0 0.0125243 -0.0303688 -0.00113837 0 0 0 0.477242 0.116507 0.147935 0.05 
2065 1 1 0.336498 0.344108 0.210916 0 0 0 -0.03216 0.00406649 0.0160294 0 0 0 -0.0899788 0.252738 0.024858 0.05 
1553 1 1 1.18874 0.360441 0.165602 0 0 0 -0.0396303 -0.0223577 -0.0126393 0 0 0 0.177772 0.461189 -0.393636 0.05 
601 1 1 1.4862 0.37855 0.171051 0 0 0 -0.029448 -0.0231963 0.0094216 0 0 0 -0.149355 0.0282389 -0.469041 0.05 
1717 1 1 1.63687 0.358479 0.185902 0 0 0 0.00181632 -0.0165813 -0.0115835 0 0 0 0.671093 0.673653 0.224999 0.05 
651 1 1 1.76383 0.349784 0.172472 0 0 0 -0.0102291 -0.0315707 0.00113804 0 0 0 0.338908 -0.0254335 0.149069 0.05 
1607 1 1 1.85104 0.362491 0.225574 0 0 0 0.00771708 -0.0401239 0.0201301 0 0 0 0.378284 0.0305547 0.179291 0.05 
55 1 1 0.928003 0.417441 0.175868 0 0 0 -0.0526029 -0.00115945 0.0139795 0 0 0 0.467117 0.359036 0.128927 0.05 
572 1 1 1.51326 0.472789 0.194249 0 0 0 0.00194202 -0.0157341 0.0143692 0 0 0 0.320772 0.371295 -0.0638341 0.05 
2569 1 1 1.08341 0.539266 0.229104 0 0 0 -0.038583 0.00883996 0.0488753 0 0 0 -0.298677 -0.56098 0.431001 0.05 
1065 1 1 0.256787 0.624545 0.182016 0 0 0 -0.030185 0.0663067 -0.0456311 0 0 0 0.101113 -0.0135753 0.0734958 0.05 
2574 1 1 1.34333 0.593521 0.180089 0 0 0 -0.0400922 -0.0198448 0.016695 0 0 0 -0.112845 0.552572 -0.0202634 0.05 
2049 1 1 0.0571995 0.660824 0.172437 0 0 0 -0.0814201 0.0651993 -0.0255811 0 0 0 0.33552 1.36151 -0.0187584 0.05 
2213 1 1 0.786795 0.641502 0.196176 0 0 0 -0.0711926 0.0164458 0.0182214 0 0 0 -0.19751 0.00836128 -0.756946 0.05 
124 1 1 1.84198 0.623989 0.193848 0 0 0 0.0133294 -0.045298 -0.0160281 0 0 0 -0.214889 -0.429445 0.691414 0.05 
567 1 1 0.251025 0.801662 0.198516 0 0 0 0.00422648 0.143572 0.0114377 0 0 0 -1.35486 0.960751 0.334535 0.05 
1078 1 1 0.534407 0.766501 0.188483 0 0 0 0.00545205 0.0652435 0.0287339 0 0 0 -0.383097 1.19106 0.893529 0.05 
530 1 1 1.64608 0.71416 0.203268 0 0 0 -0.0118916 -0.101268 0.00852891 0 0 0 0.0935037 0.606622 -0.295308 0.05 
1670 1 1 1.78884 0.739429 0.171712 0 0 0 0.0333772 -0.0593078 0.00903966 0 0 0 -0.457258 -0.144175 -0.136557 0.05 
1123 1 1 0.34837 0.850226 0.229684 0 0 0 -0.0308112 0.0782568 0.055064 0 0 0 0.205301 0.347654 0.489127 0.05 
2121 1 1 1.93632 0.798733 0.221108 0 0 0 0.016727 -0.0795923 0.0103977 0 0 0 0.420508 -1.08009 0.458916 0.05 
2670 1 1 0.149136 0.874127 0.188494 0 0 0 -0.0489484 0.0590624 -0.0207752 0 0 0 0.45373 -0.433924 0.717739 0.05 
527 1 1 1.12449 0.911895 0.227174 0 0 0 0.0083716 0.124337 0.0501972 0 0 0 0.823435 -0.628424 -0.741761 0.05 
1625 1 1 1.57948 0.878587 0.194495 0 0 0 -0.0159714 -0.0408515 0.0287974 0 0 0 1.25775 -0.453167 0.967212 0.05 
580 1 1 1.85601 0.872194 0.197386 0 0 0 -0.021353 -0.0725543 0.0245908 0 0 0 -0.799161 -0.643736 0.0671798 0.05 
1036 1 1 1.3855 0.980486 0.197507 0 0 0 -0.00494831 -0.0215332 -0.00198239 0 0 0 0.495169 0.468964 -0.0110496 0.05 
2100 1 1 0.764181 0.0929801 0.2305 0 0 0 -0.138536 -0.0269221 0.00942333 0 0 0 -1.37798 3.06271 -4.97001 0.05 
2118 1 1 1.13502 0.0644777 0.226327 0 0 0 -0.133747 -0.0606242 -0.0488183 0 0 0 1.69461 1.19624 -2.75476 0.05 
1032 1 1 0.0795792 0.152992 0.212745 0 0 0 0.0366864 -0.0171088 -0.0363167 0 0 0 -1.16638 0.680292 0.0344098 0.05 
682 1 1 0.926612 0.130441 0.265254 0 0 0 -0.150181 -0.0330227 0.0278637 0 0 0 0.690313 -1.47432 0.0162572 0.05 
1636 1 1 1.14787 0.178883 0.262753 0 0 0 -0.0591633 -0.00132215 0.0224588 0 0 0 -0.583026 -0.215863 0.425012 0.05 
90 1 1 1.51797 0.17592 0.277568 0 0 0 -0.00703548 -0.00892717 0.0217175 0 0 0 -0.114853 -0.478832 0.879575 0.05 
2091 1 1 1.94568 0.195862 0.263358 0 0 0 0.0197925 -0.0249743 -0.00159715 0 0 0 0.226006 -0.101649 -0.282924 0.05 
1114 1 1 0.885156 0.231767 0.230659 0 0 0 -0.0853785 0.0316394 0.00133806 0 0 0 0.515646 0.684463 -0.775378 0.05 
1550 1 1 1.18278 0.28316 0.232296 0 0 0 -0.0682427 0.0333548 -0.0117972 0 0 0 0.154518 -0.0608186 -0.245215 0.05 
1669 1 1 1.61473 0.224606 0.266562 0 0 0 0.0223358 -0.0520448 0.00395791 0 0 0 -0.0348175 -0.465791 0.129646 0.05 
2630 1 1 1.82835 0.247089 0.241419 0 0 0 0.00434199 -0.00697945 0.0102072 0 0 0 0.167361 -0.216208 -0.0925621 0.05 
2683 1 1 0.503492 0.307811 0.237172 0 0 0 -0.0900188 0.0142757 0.0039886 0 0 0 -0.424086 -0.374706 -0.150107 0.05 
1124 1 1 0.0699253 0.396076 0.270905 0 0 0 -0.0131667 0.0354837 -0.0234028 0 0 0 0.641972 -1.67184 2.32969 0.05 
2195 1 1 0.843552 0.350096 0.231943 0 0 0 -0.0459585 0.0403375 0.0254103 0 0 0 -0.187801 0.705188 -0.693599 0.05 
2631 1 1 1.9422 0.374033 0.274351 0 0 0 -0.00822532 -0.00727778 0.00465528 0 0 0 0.281641 0.148228 0.0691732 0.05 
584 1 1 0.208007 0.420629 0.265736 0 0 0 -0.0736297 0.02111 0.0280158 0 0 0 0.744432 -0.0261974 -0.151916 0.05 
1655 1 1 0.677534 0.454827 0.280861 0 0 0 -0.043597 0.0686587 0.056534 0 0 0 -0.427221 0.0881478 0.107092 0.05 
1125 1 1 0.801335 0.446567 0.270785 0 0 0 -0.0732535 0.0491761 -0.0240612 0 0 0 0.593159 -0.0869797 -0.372275 0.05 
91 1 1 1.26488 0.40034 0.220673 0 0 0 -0.0419062 -0.0487845 -0.0144467 0 0 0 -0.412595 -0.188706 -0.0276724 0.05 
2152 1 1 1.37184 0.422614 0.248619 0 0 0 -0.0326551 -0.00810486 0.0112702 0 0 0 0.0669677 0.0938538 0.24373 0.05 
153 1 1 1.7242 0.410822 0.262221 0 0 0 -0.0266761 -0.0122685 -0.0143917 0 0 0 0.0613401 -0.0265072 0.395309 0.05 
599 1 1 0.327375 0.506652 0.290451 0 0 0 0.00870739 0.0793333 0.0794572 0 0 0 0.99555 -0.0876618 -0.325162 0.05 
2692 1 1 1.8273 0.460212 0.257633 0 0 0 0.0148591 -0.0186807 0.0103821 0 0 0 0.0848398 0.478658 -0.311461 0.05 
1603 1 1 0.973616 0.522174 0.269288 0 0 0 -0.025312 0.00471163 0.0275076 0 0 0 -0.0356885 -0.621248 -0.039883 0.05 
2227 1 1 1.65456 0.527649 0.247935 0 0 0 -0.0652817 -0.0449834 -0.00599359 0 0 0 -0.807121 0.721178 -0.119509 0.05 
1716 1 1 1.93443 0.526655 0.272182 0 0 0 0.0220173 0.00217789 0.0127198 0 0 0 0.669685 0.117289 0.718955 0.05 
1091 1 1 0.654253 0.587722 0.266824 0 0 0 -0.00839129 0.0366974 -0.00328641 0 0 0 0.365489 0.962052 -0.432858 0.05 
1559 1 1 1.17966 0.565649 0.246755 0 0 0 -0.0155161 -0.0564607 0.0172722 0 0 0 -0.471747 0.175801 -0.0349187 0.05 
2643 1 1 0.356052 0.667923 0.238685 0 0 0 0.0386422 0.119012 0.019167 0 0 0 0.587548 -0.194549 0.591381 0.05 
1766 1 1 0.456374 0.628969 0.23974 0 0 0 -0.0876296 0.0648004 -0.0524596 0 0 0 0.542762 -0.887381 -0.113551 0.05 
1223 1 1 1.71559 0.60853 0.234451 0 0 0 -0.0102177 -0.0378668 -0.0164573 0 0 0 0.0746276 -0.300602 -0.431854 0.05 
1090 1 1 0.600114 0.702195 0.242076 0 0 0 0.0854737 0.0134787 0.0668466 0 0 0 0.0782745 -0.017605 0.477817 0.05 
1106 1 1 1.29173 0.665589 0.265904 0 0 0 0.0147214 -0.0363899 0.0138952 0 0 0 0.547258 0.594301 0.171314 0.05 
1573 1 1 1.21093 0.773938 0.245715 0 0 0 0.00745748 0.0196489 0.0720015 0 0 0 -0.118001 0.76639 -0.709821 0.05 
14 1 1 0.956916 0.818549 0.257808 0 0 0 0.0105313 0.0555589 -0.0281542 0 0 0 -0.0132038 0.166342 0.140315 0.05 
2112 1 1 0.32898 0.946944 0.262686 0 0 0 0.0343969 0.0839319 0.0175168 0 0 0 1.07061 0.781737 -0.978004 0.05 
1093 1 1 0.513548 0.925291 0.231634 0 0 0 -0.0279132 0.10511 -0.011674 0 0 0 0.222006 1.33971 0.173842 0.05 
2605 1 1 0.704292 0.945746 0.257191 0 0 0 0.0152663 0.0766478 -0.0504905 0 0 0 0.016987 -0.012523 -0.384864 0.05 
117 1 1 1.71764 0.898958 0.249247 0 0 0 0.00472296 -0.11544 0.00241706 0 0 0 -0.553967 -0.555268 0.918614 0.05 
635 1 1 1.57781 0.973608 0.242203 0 0 0 0.0105993 -0.0452764 0.00691634 0 0 0 -0.794249 -0.838589 -0.0723452 0.05 
1240 1 1 1.88079 0.0545949 0.308088 0 0 0 -0.0373298 0.0215997 0.047621 0 0 0 1.05184 0.418841 -1.27606 0.05 
1095 1 1 0.105343 0.123369 0.324512 0 0 0 -0.251735 0.152475 -0.0570676 0 0 0 -3.54084 0.838176 -2.53344 0.05 
104 1 1 0.654336 0.0798269 0.344187 0 0 0 -0.167613 0.0293215 0.0650417 0 0 0 -1.54908 1.89817 -1.49937 0.05 
556 1 1 1.06108 0.106391 0.331928 0 0 0 -0.167991 0.0204738 0.0457738 0 0 0 0.0890726 -0.615953 -0.301648 0.05 
2627 1 1 0.493323 0.13601 0.310862 0 0 0 -0.165328 -0.0359681 -0.063472 0 0 0 0.691825 2.32005 0.0372121 0.05 
2597 1 1 1.29079 0.108353 0.30451 0 0 0 -0.0746898 -0.0178039 0.0214013 0 0 0 0.513331 0.592006 0.716008 0.05 
632 1 1 1.67686 0.118009 0.306747 0 0 0 -0.0152592 -0.0467091 0.00638462 0 0 0 -0.569722 -0.1515 0.605321 0.05 
2087 1 1 0.438688 0.228969 0.310555 0 0 0 -0.119852 0.0705946 -0.00678038 0 0 0 -0.388965 -2.70581 -4.65661 0.05 
1163 1 1 1.29348 0.213195 0.2897 0 0 0 -0.0416912 -0.0327847 0.0332714 0 0 0 -0.318332 0.154969 0.0290644 0.05 
1672 1 1 0.0874997 0.267546 0.326452 0 0 0 -0.0511867 0.0335972 0.0173637 0 0 0 -0.376126 0.794861 -4.68671 0.05 
119 1 1 0.229425 0.248365 0.295906 0 0 0 -0.00109615 0.0267379 -0.00184374 0 0 0 -0.798311 -0.0252208 0.28337 0.05 
1576 1 1 0.588473 0.276715 0.308069 0 0 0 -0.0611468 -0.00198064 0.0640872 0 0 0 0.2357 0.00359803 -0.030236 0.05 
2678 1 1 1.73917 0.228045 0.285771 0 0 0 -0.00237879 -0.0100677 -0.0132224 0 0 0 0.0111432 -0.0755936 -0.7993 0.05 
1127 1 1 1.05698 0.315575 0.27674 0 0 0 -0.121033 0.0975325 -0.0256326 0 0 0 1.07688 0.483836 -0.27192 0.05 
2656 1 1 1.39842 0.328727 0.307741 0 0 0 -0.0462123 -0.000257182 0.0271083 0 0 0 0.517461 -0.944137 -0.943842 0.05 
87 1 1 0.364296 0.388252 0.296727 0 0 0 -0.0451322 0.0349234 0.0146987 0 0 0 -1.16967 0.0419451 -0.72211 0.05 
54 1 1 0.562507 0.399994 0.29237 0 0 0 -0.0644177 0.046233 0.0337367 0 0 0 -0.903555 0.837393 -0.885849 0.05 
1703 1 1 1.56047 0.332017 0.296444 0 0 0 -0.0273875 -0.0538455 -0.0214408 0 0 0 0.373728 -0.686144 0.0147391 0.05 
2738 1 1 1.65869 0.323069 0.278104 0 0 0 -0.0270908 -0.0424263 -0.0303155 0 0 0 -0.431679 -0.0762308 -0.396624 0.05 
106 1 1 1.78352 0.348285 0.31401 0 0 0 0.00294168 -0.0239313 -0.00291831 0 0 0 -0.225204 0.188142 0.0137225 0.05 
2628 1 1 1.0547 0.416011 0.270929 0 0 0 -0.0358725 -0.0389724 -0.0414682 0 0 0 0.311109 -0.430677 0.18488 0.05 
1671 1 1 1.62409 0.427245 0.274422 0 0 0 0.0183583 0.00277058 -0.0208623 0 0 0 -0.376084 -0.493291 -0.669316 0.05 
517 1 1 0.128355 0.459042 0.32809 0 0 0 0.0450007 0.146935 0.0550635 0 0 0 0.330266 0.805956 -3.01238 0.05 
612 1 1 0.594541 0.486619 0.341264 0 0 0 -0.0742843 -0.00411216 0.0397383 0 0 0 0.34309 -0.568925 -1.86784 0.05 
1666 1 1 0.886261 0.464394 0.32475 0 0 0 -0.0962386 0.0419881 0.022172 0 0 0 0.379735 -0.564728 0.221213 0.05 
2610 1 1 1.25834 0.468581 0.30684 0 0 0 -0.0249233 -0.0119914 -0.00851674 0 0 0 -0.17497 -0.317858 -1.12471 0.05 
1141 1 1 1.54827 0.518486 0.293962 0 0 0 -0.0145546 -0.00775534 -0.00889737 0 0 0 -0.272433 -0.350375 -0.83931 0.05 
2752 1 1 0.143244 0.6295 0.27254 0 0 0 0.0146925 0.153671 -0.049343 0 0 0 -1.70361 -0.923423 0.971166 0.05 
554 1 1 1.44586 0.586115 0.325682 0 0 0 -0.0492134 -0.0519489 -0.00777419 0 0 0 -0.715112 0.0482928 0.823402 0.05 
2084 1 1 0.949266 0.627905 0.334173 0 0 0 -0.0474465 0.0265598 0.00916002 0 0 0 -0.130563 0.837017 -0.271768 0.05 
2167 1 1 1.55696 0.658065 0.293696 0 0 0 -0.0195546 -0.0259001 0.0153412 0 0 0 0.287208 -0.051274 0.173068 0.05 
2255 1 1 0.0536343 0.69956 0.330578 0 0 0 0.0340413 0.0818974 0.0415325 0 0 0 -1.45756 -0.589919 1.4824 0.05 
166 1 1 0.286134 0.7761 0.322056 0 0 0 0.00769438 0.124165 0.0321395 0 0 0 -0.116983 0.0735594 -0.355486 0.05 
1621 1 1 1.64333 0.759352 0.331803 0 0 0 -0.00437732 -0.087056 0.00804244 0 0 0 0.108413 1.01386 -0.764128 0.05 
139 1 1 1.76445 0.723868 0.295123 0 0 0 0.001822 -0.0332244 0.00144035 0 0 0 0.20006 -0.387598 -0.0493243 0.05 
1730 1 1 0.0772527 0.823028 0.303241 0 0 0 -0.0650767 0.114656 0.000148661 0 0 0 -0.859478 -0.621326 1.05989 0.05 
1041 1 1 0.524021 0.826272 0.291287 0 0 0 -0.000105889 0.0579699 -0.00637898 0 0 0 0.198225 0.307953 -0.281714 0.05 
56 1 1 1.83045 0.806903 0.305265 0 0 0 0.00111375 -0.0640881 -0.0347849 0 0 0 0.886641 0.743692 0.56658 0.05 
1099 1 1 1.94338 0.760926 0.326979 0 0 0 0.0013759 -0.0849253 0.0599388 0 0 0 -0.328728 -0.533147 0.891339 0.05 
2131 1 1 1.04353 0.837202 0.308445 0 0 0 -0.0301493 0.00315785 0.0256903 0 0 0 0.486232 0.258776 -0.0254592 0.05 
570 1 1 1.60478 0.845629 0.289012 0 0 0 0.0208663 -0.0237289 0.00367092 0 0 0 -0.269524 -0.369441 -0.852492 0.05 
1238 1 1 0.177558 0.972051 0.291962 0 0 0 0.0111723 0.141884 -0.0949513 0 0 0 0.46229 0.0598553 0.190215 0.05 
665 1 1 1.90524 0.884731 0.284267 0 0 0 0.00743086 -0.0271103 -0.0274584 0 0 0 0.338147 -0.489344 -0.484795 0.05 
1619 1 1 0.869708 0.961588 0.326917 0 0 0 0.0700478 0.0258309 0.00928934 0 0 0 -1.16443 1.89727 0.0160551 0.05 
2115 1 1 1.39412 0.961876 0.2997 0 0 0 0.0339258 -0.0744517 0.00320582 0 0 0 0.300691 0.187904 -0.825506 0.05 
1147 1 1 0.780705 0.0594652 0.357113 0 0 0 -0.159196 0.0368346 0.0275581 0 0 0 -0.493731 0.462806 -0.874523 0.05 
645 1 1 0.284304 0.115705 0.364139 0 0 0 -0.190714 0.0313639 0.0671576 0 0 0 -1.04588 -0.512449 -3.06772 0.05 
155 1 1 1.44003 0.0649393 0.362151 0 0 0 -0.077502 0.00137422 -0.0463474 0 0 0 1.69275 -0.274847 -2.72798 0.05 
123 1 1 1.56676 0.0853626 0.352524 0 0 0 -0.0598335 0.00843059 -0.0131022 0 0 0 0.18285 1.52745 -4.6191 0.05 
1161 1 1 0.871769 0.150075 0.372261 0 0 0 -0.0806964 0.0277717 0.00267881 0 0 0 1.09263 1.76272 -4.36883 0.05 
1752 1 1 1.78269 0.145198 0.345784 0 0 0 -0.0143575 -0.0104733 0.0302022 0 0 0 0.30158 0.136737 0.692503 0.05 
1115 1 1 1.87704 0.159762 0.376535 0 0 0 -0.00386804 -0.034767 -0.0121311 0 0 0 -0.483578 -0.177695 -0.280272 0.05 
183 1 1 0.836965 0.254015 0.394014 0 0 0 -0.0962563 0.00508697 0.038541 0 0 0 -0.634888 -0.239902 0.160286 0.05 
2647 1 1 1.19545 0.234536 0.374249 0 0 0 -0.0904988 -0.00136715 -0.0323884 0 0 0 0.605694 0.227171 0.945148 0.05 
2136 1 1 1.43569 0.219715 0.377085 0 0 0 -0.0566503 -0.032002 0.00104278 0 0 0 0.0144875 -0.846557 -0.134207 0.05 
583 1 1 1.93583 0.261472 0.347635 0 0 0 0.007149 -0.0264602 -0.00984346 0 0 0 -0.035818 0.112286 0.169622 0.05 
2788 1 1 0.436737 0.3324 0.363127 0 0 0 0.011865 -0.00237196 -0.00169831 0 0 0 0.633283 0.626848 0.882452 0.05 
710 1 1 1.06687 0.303983 0.391736 0 0 0 -0.0974852 0.00411034 0.0424066 0 0 0 1.23858 0.0613399 0.356892 0.05 
34 1 1 0.185084 0.369742 0.368038 0 0 0 -0.0840822 0.0510452 0.0279008 0 0 0 -1.06796 -0.0354518 -0.63356 0.05 
2211 1 1 0.822746 0.343507 0.336521 0 0 0 -0.0925525 -0.0219386 0.00432393 0 0 0 0.464193 -0.676166 0.0827839 0.05 
2693 1 1 1.94795 0.386028 0.378192 0 0 0 0.00964038 -0.0055814 0.00328475 0 0 0 -0.43121 0.112865 0.154154 0.05 
1626 1 1 1.71103 0.401111 0.368424 0 0 0 -0.0148705 -0.0591124 0.00556793 0 0 0 0.194545 0.100791 -0.191939 0.05 
1610 1 1 1.85138 0.415471 0.381761 0 0 0 0.00627729 -0.0277351 0.0309602 0 0 0 0.4169 0.273983 0.106657 0.05 
2114 1 1 1.15102 0.47528 0.340112 0 0 0 -0.0256413 -0.0206169 -0.0176323 0 0 0 0.513851 -0.207106 -0.159265 0.05 
73 1 1 1.37869 0.479252 0.342539 0 0 0 -0.0283083 -0.0485078 0.0084137 0 0 0 -0.326855 0.809278 0.50231 0.05 
1688 1 1 1.78184 0.487277 0.355916 0 0 0 -0.0112352 -0.0119321 0.0341424 0 0 0 0.222216 -0.806344 0.003317 0.05 
2673 1 1 0.0696657 0.540861 0.36112 0 0 0 -0.00205936 0.0784822 0.016597 0 0 0 -0.0583152 0.661241 1.32723 0.05 
2674 1 1 0.209229 0.560903 0.356959 0 0 0 -0.0905344 0.0333452 0.037678 0 0 0 -0.509661 1.33207 -1.60306 0.05 
2582 1 1 1.6805 0.51004 0.345363 0 0 0 -0.0121212 -0.0422935 0.0259167 0 0 0 0.0551623 0.359103 -0.41807 0.05 
2704 1 1 0.403335 0.568711 0.367847 0 0 0 -0.0470569 0.0308572 -0.0369641 0 0 0 1.07258 -0.478994 0.78246 0.05 
2164 1 1 1.81977 0.599986 0.393678 0 0 0 -0.0169919 -0.0539997 0.0367544 0 0 0 -0.277467 0.365963 0.357624 0.05 
2803 1 1 1.92584 0.622608 0.344754 0 0 0 0.00896817 -0.0921096 -0.0292323 0 0 0 0.0919036 0.917923 -0.342401 0.05 
553 1 1 0.378227 0.701183 0.372718 0 0 0 0.00443019 0.0925498 -0.00780921 0 0 0 -0.293604 0.422562 -0.962496 0.05 
1207 1 1 0.573673 0.688126 0.369626 0 0 0 -0.053654 0.0615093 -0.0562466 0 0 0 -0.666438 1.0682 -0.417766 0.05 
566 1 1 0.859793 0.775625 0.352408 0 0 0 -0.014462 0.0312829 -0.00094689 0 0 0 0.463763 0.3611 -0.113533 0.05 
70 1 1 1.08424 0.744682 0.351007 0 0 0 -0.025069 0.0592915 -0.0257259 0 0 0 -0.474767 -0.26157 -0.586853 0.05 
2163 1 1 0.393895 0.817644 0.374381 0 0 0 0.0533873 0.132223 -0.000286685 0 0 0 0.463088 0.477008 -0.239951 0.05 
2058 1 1 0.686626 0.847239 0.372917 0 0 0 -0.00677831 0.0694748 0.00862809 0 0 0 -0.137843 -1.84898 -0.222823 0.05 