ITEM: TIMESTEP
0
ITEM: NUMBER OF ATOMS
717
ITEM: BOX BOUNDS pp pp pp
0 1
0 1
0 1
ITEM: ATOMS id type type x y z ix iy iz vx vy vz fx fy fz omegax omegay omegaz radius 
403 1 1 0.809374 0.0816626 0.0514294 0 0 0 -0.00456973 0.00224918 0.00253064 0 0 0 -0.0298184 -0.059065 -1.35337 0.05 
323 1 1 0.532172 0.115093 0.0508559 0 0 0 -0.042471 -0.0019514 0.000545051 0 0 0 -0.0032696 -0.0858027 0.334097 0.05 
540 1 1 0.629638 0.182021 0.0563596 0 0 0 -0.0223054 0.00643933 0.00588361 0 0 0 0.0914536 -0.290269 -0.541113 0.05 
511 1 1 0.851841 0.173205 0.053052 0 0 0 0.00697331 -0.0132126 0.00435888 0 0 0 -0.0130312 -0.132183 -0.238509 0.05 
530 1 1 0.561285 0.260656 0.0501411 0 0 0 -0.00209538 -0.0039921 -0.00135862 0 0 0 0.143795 -0.127726 -0.153862 0.05 
503 1 1 0.94335 0.237222 0.0527026 0 0 0 0.000464245 -0.0155796 0.00249521 0 0 0 0.27583 0.00703084 0.21295 0.05 
400 1 1 0.0598593 0.300824 0.0506039 0 0 0 0.00150981 -0.00133575 -0.00688059 0 0 0 0.183715 0.223257 0.296857 0.05 
399 1 1 0.186107 0.289112 0.0526104 0 0 0 -0.00469046 0.000447124 -0.00828134 0 0 0 -0.352648 0.0115016 -0.168026 0.05 
512 1 1 0.45897 0.298674 0.0502433 0 0 0 -0.00566963 0.0029152 0.00286705 0 0 0 -0.0733813 0.00959777 -0.181218 0.05 
488 1 1 0.661091 0.282045 0.0521202 0 0 0 -0.000672486 -0.00489068 -0.0162981 0 0 0 0.246569 0.126944 0.355288 0.05 
245 1 1 0.535821 0.374215 0.0517117 0 0 0 0.00185613 -0.00660913 -0.00743798 0 0 0 -0.0141734 -0.0810625 -0.0100486 0.05 
492 1 1 0.646224 0.381795 0.0504052 0 0 0 -0.0184582 0.00388028 -0.00241663 0 0 0 -0.101983 0.00803524 0.0331345 0.05 
533 1 1 0.94695 0.377578 0.0529256 0 0 0 0.017338 -0.00768425 0.00540726 0 0 0 0.385698 0.104375 0.0476639 0.05 
257 1 1 0.0506672 0.43807 0.0524978 0 0 0 -0.00183635 0.0137115 0.00447419 0 0 0 -0.213123 -0.0117052 0.306797 0.05 
84 1 1 0.285768 0.403903 0.0528561 0 0 0 0.000803103 0.000719199 0.00867002 0 0 0 -0.102697 0.0330476 0.0917811 0.05 
88 1 1 0.423562 0.400696 0.0511392 0 0 0 -0.00129053 0.00228693 -0.0169204 0 0 0 -0.113314 -0.0991248 -0.124425 0.05 
528 1 1 0.846265 0.439182 0.0531345 0 0 0 8.88714e-05 -0.0179121 -0.00568904 0 0 0 0.0431031 -0.0742496 -0.195291 0.05 
90 1 1 0.192886 0.447925 0.0507618 0 0 0 0.00572514 0.0156353 -0.00707992 0 0 0 -0.0633583 0.0492751 0.0592369 0.05 
5 1 1 0.361247 0.480381 0.0531084 0 0 0 0.00974222 0.016016 0.0010328 0 0 0 0.132542 -0.0422961 0.0330377 0.05 
508 1 1 0.719976 0.453618 0.0501195 0 0 0 0.000281345 -0.0132555 0.000313357 0 0 0 -0.0197014 -0.0233048 -0.301989 0.05 
83 1 1 0.0644129 0.051104 0.101431 0 0 0 -0.00615855 0.00509563 -0.00894427 0 0 0 0.0637298 -0.116435 -0.232554 0.05 
326 1 1 0.62156 0.0520101 0.0653542 0 0 0 -0.0281749 0.00376511 -0.0014724 0 0 0 0.214338 -0.149407 -1.66113 0.05 
247 1 1 0.184256 0.068328 0.101932 0 0 0 0.0302062 -0.00182436 -0.0271063 0 0 0 0.534918 -0.145279 0.169398 0.05 
410 1 1 0.326913 0.0638607 0.0854207 0 0 0 -0.0677272 0.0246072 -0.00299739 0 0 0 0.282142 -0.215467 -2.43382 0.05 
494 1 1 0.726643 0.154308 0.0830929 0 0 0 -0.00723616 0.00895449 0.00021553 0 0 0 0.388984 0.435327 0.766011 0.05 
482 1 1 0.94114 0.111342 0.0556943 0 0 0 -0.00505211 -0.0168805 -0.00436684 0 0 0 0.0731589 -0.0757272 0.40589 0.05 
86 1 1 0.135465 0.166378 0.0699066 0 0 0 -0.0403785 -0.00939522 -0.00181784 0 0 0 -0.137077 -0.243827 -0.317817 0.05 
325 1 1 0.247771 0.179454 0.0813429 0 0 0 -0.0187833 0.000709297 0.00167644 0 0 0 -0.433356 -0.199824 0.282001 0.05 
324 1 1 0.447654 0.174923 0.0559388 0 0 0 -0.0325318 0.00909216 -0.00648702 0 0 0 0.100706 0.141622 -0.291652 0.05 
3 1 1 0.351172 0.225803 0.0680217 0 0 0 -0.000167278 0.004956 -0.0150643 0 0 0 0.095636 0.179143 0.256396 0.05 
509 1 1 0.766765 0.256029 0.061908 0 0 0 -0.0129165 -0.0238166 -0.00996855 0 0 0 0.0478952 -0.141476 -0.236619 0.05 
246 1 1 0.355415 0.322542 0.0993867 0 0 0 -0.00678735 0.0147198 0.0006145 0 0 0 0.272827 -0.0621097 -0.217594 0.05 
500 1 1 0.864602 0.309611 0.0580567 0 0 0 -0.000494434 -0.0152739 -0.00249275 0 0 0 0.100869 -0.030342 -0.165594 0.05 
174 1 1 0.128837 0.373847 0.0714588 0 0 0 0.00402236 0.0142151 -0.00294107 0 0 0 -0.0432783 -0.00562258 -0.0631163 0.05 
507 1 1 0.767169 0.364788 0.0607907 0 0 0 -0.00220866 -0.000285932 -0.00195929 0 0 0 0.0811098 -0.114209 0.0750299 0.05 
165 1 1 0.584941 0.471855 0.0565374 0 0 0 0.00768493 0.00147951 -0.0057554 0 0 0 -0.154374 0.00697788 -0.078222 0.05 
481 1 1 0.774702 0.0513033 0.150349 0 0 0 -0.0420305 -0.00388993 0.000630951 0 0 0 0.61923 0.470127 -2.30484 0.05 
16 1 1 0.333803 0.141706 0.160731 0 0 0 0.0121655 0.00892067 0.0365011 0 0 0 0.0131086 0.181262 0.255132 0.05 
550 1 1 0.580656 0.129853 0.143347 0 0 0 -0.0587922 -0.0128989 0.00579043 0 0 0 -0.253116 -0.292871 -0.306992 0.05 
529 1 1 0.852494 0.139757 0.153971 0 0 0 -0.00634494 -0.0154411 0.000647725 0 0 0 -0.257581 -0.144092 0.451754 0.05 
182 1 1 0.0589044 0.202601 0.155475 0 0 0 0.0108556 -0.0125917 -0.000673172 0 0 0 0.120919 0.110855 0.315481 0.05 
537 1 1 0.446924 0.172943 0.157688 0 0 0 -0.0135298 -0.00568037 0.00528251 0 0 0 0.191238 0.247287 0.413665 0.05 
491 1 1 0.692149 0.211606 0.164603 0 0 0 -0.0257311 -0.0287286 -0.00759732 0 0 0 0.0131509 0.20873 -0.441923 0.05 
534 1 1 0.948181 0.188195 0.143662 0 0 0 -0.00625375 -0.0083371 0.000132219 0 0 0 0.0310904 -0.0259753 -0.0517545 0.05 
547 1 1 0.506865 0.255871 0.13839 0 0 0 -0.0180055 -0.000932006 -0.00342018 0 0 0 -0.0392748 -0.0495917 -0.0520571 0.05 
514 1 1 0.814395 0.246132 0.163819 0 0 0 -0.0142304 -0.0177403 -0.00513772 0 0 0 0.00575278 0.194069 -0.13351 0.05 
9 1 1 0.118898 0.284843 0.132048 0 0 0 0.00534643 0.0255673 0.00068921 0 0 0 0.15084 0.0593559 0.207006 0.05 
170 1 1 0.255087 0.332746 0.116351 0 0 0 0.00418657 0.00501242 0.00356013 0 0 0 0.154267 0.0235723 0.0728493 0.05 
546 1 1 0.718789 0.324242 0.152898 0 0 0 -0.00287987 -0.0167296 0.00470661 0 0 0 -0.00259459 0.0857233 -0.0767431 0.05 
519 1 1 0.94416 0.292181 0.139282 0 0 0 0.00236291 -0.0148737 0.00355681 0 0 0 -0.285531 0.121615 0.000115093 0.05 
97 1 1 0.0603551 0.387025 0.146709 0 0 0 -0.000162767 0.00370499 -0.00645733 0 0 0 0.00780678 0.0676406 0.249703 0.05 
504 1 1 0.573741 0.341819 0.14379 0 0 0 -0.0103119 -0.0120039 -0.00984634 0 0 0 -0.00123389 0.10501 -0.0623138 0.05 
489 1 1 0.824824 0.347009 0.1454 0 0 0 -0.00421144 -0.00683487 -0.00353217 0 0 0 0.003213 0.089195 -0.0819969 0.05 
333 1 1 0.181461 0.414296 0.149981 0 0 0 0.0116383 0.0168725 -0.00421987 0 0 0 -0.0811647 -0.0108989 0.17188 0.05 
322 1 1 0.279255 0.431634 0.164592 0 0 0 -0.00256287 0.000222165 -0.00396795 0 0 0 0.0271041 0.26599 -0.166002 0.05 
172 1 1 0.459291 0.404194 0.144884 0 0 0 -0.00307856 0.00392528 0.00728904 0 0 0 0.0439938 -0.166396 -0.0929305 0.05 
490 1 1 0.643772 0.432431 0.145688 0 0 0 0.000945627 -0.00537606 0.00215451 0 0 0 -0.102194 0.0824956 0.0134219 0.05 
536 1 1 0.749809 0.42358 0.16022 0 0 0 0.00225023 0.00109245 -0.013296 0 0 0 0.187232 0.23571 0.212117 0.05 
345 1 1 0.121573 0.489463 0.11673 0 0 0 -0.00370166 0.0112445 -0.0145789 0 0 0 -0.0698108 0.0969914 -0.181045 0.05 
408 1 1 0.371272 0.471889 0.153282 0 0 0 -0.00720046 0.00572086 0.00238901 0 0 0 -0.114566 -0.0207902 -0.276461 0.05 
335 1 1 0.509347 0.492276 0.131897 0 0 0 -0.00161365 0.00806558 0.000787081 0 0 0 -0.037404 0.155203 -0.21568 0.05 
538 1 1 0.944352 0.484868 0.114714 0 0 0 -0.00221101 -0.0206996 0.00307738 0 0 0 -0.0837346 -0.146751 -0.131515 0.05 
418 1 1 0.150761 0.0569567 0.204415 0 0 0 -0.0439518 0.0384066 -0.00490885 0 0 0 0.857774 0.0630535 -3.95353 0.05 
176 1 1 0.522382 0.0595187 0.186444 0 0 0 -0.047818 -0.00304015 -0.0190765 0 0 0 1.19917 0.262351 -1.91839 0.05 
173 1 1 0.682935 0.0690435 0.198596 0 0 0 -0.040534 -0.00635042 0.00274938 0 0 0 -0.476184 -0.117258 0.452418 0.05 
498 1 1 0.947857 0.0941587 0.207082 0 0 0 -0.00347187 -0.0235792 0.0010644 0 0 0 -0.0256458 0.00563367 0.411742 0.05 
91 1 1 0.152073 0.157776 0.182436 0 0 0 0.00157898 0.00247811 -0.00583234 0 0 0 -0.338641 -0.0198393 0.119318 0.05 
26 1 1 0.583705 0.220421 0.191857 0 0 0 -0.0177259 0.00378785 0.00736526 0 0 0 0.0153197 0.218451 -0.444402 0.05 
421 1 1 0.208853 0.25205 0.171294 0 0 0 -0.00755979 0.0270641 0.00142016 0 0 0 -0.432291 0.0611832 -0.25572 0.05 
164 1 1 0.31213 0.256537 0.168523 0 0 0 -0.0109986 0.0140517 0.00104734 0 0 0 0.00942526 0.0186277 0.276949 0.05 
89 1 1 0.15517 0.326931 0.217819 0 0 0 -0.00240321 0.0178419 -0.00787753 0 0 0 0.00204578 0.0161927 -0.00859065 0.05 
93 1 1 0.431817 0.304781 0.198076 0 0 0 -0.00448681 0.000509172 -0.0055597 0 0 0 0.10397 0.0488165 0.121818 0.05 
484 1 1 0.949406 0.394326 0.167823 0 0 0 -0.0102549 -0.00124761 0.000608577 0 0 0 0.0680162 0.0150524 0.124592 0.05 
254 1 1 0.0501968 0.490807 0.19918 0 0 0 0.00501445 0.0216009 -0.00599688 0 0 0 -0.223655 0.151607 0.49257 0.05 
480 1 1 0.569145 0.477026 0.216902 0 0 0 0.00518054 -0.00427155 -0.00360251 0 0 0 0.0205104 -0.0315061 -0.116909 0.05 
252 1 1 0.243878 0.0539375 0.244279 0 0 0 -0.0511199 0.00357835 -0.00805767 0 0 0 -0.231843 0.223948 -1.53565 0.05 
102 1 1 0.771525 0.050301 0.255426 0 0 0 -0.028447 -0.0154981 0.0195196 0 0 0 -0.0147485 -0.105253 -1.59807 0.05 
424 1 1 0.0610682 0.114882 0.266869 0 0 0 -0.0386296 0.0511841 0.0195205 0 0 0 0.975913 0.0127866 1.03802 0.05 
270 1 1 0.389183 0.0871657 0.261526 0 0 0 -0.0179588 0.0261041 -0.00996243 0 0 0 -0.395124 -0.128683 -0.913891 0.05 
414 1 1 0.642893 0.154139 0.238206 0 0 0 -0.0256568 -0.00422257 -0.00583955 0 0 0 0.138022 -0.403221 -0.316246 0.05 
531 1 1 0.831702 0.157712 0.264157 0 0 0 -0.00595859 -0.0120123 0.011478 0 0 0 0.00928276 -0.227592 -0.160831 0.05 
330 1 1 0.387702 0.193165 0.255732 0 0 0 -0.0134865 0.00515972 0.0029088 0 0 0 0.344675 -0.100582 0.53158 0.05 
535 1 1 0.487038 0.208795 0.246475 0 0 0 -0.0109202 0.0303417 -0.00627331 0 0 0 0.0540745 -0.283546 -0.600638 0.05 
594 1 1 0.940147 0.218821 0.265071 0 0 0 0.00362511 -0.00769723 0.00309918 0 0 0 0.229601 -0.205101 -0.0827177 0.05 
255 1 1 0.159868 0.234995 0.269107 0 0 0 -0.000752427 0.0181261 0.0118325 0 0 0 -0.0529638 0.401992 0.0132818 0.05 
502 1 1 0.754366 0.236318 0.255257 0 0 0 -0.00948581 0.00302538 0.000887012 0 0 0 0.208948 -0.213359 -0.0322785 0.05 
262 1 1 0.0528462 0.329122 0.229048 0 0 0 0.0108477 0.0119192 0.00225228 0 0 0 -0.0712854 -0.0436125 0.19595 0.05 
260 1 1 0.337664 0.327806 0.234296 0 0 0 -0.0144434 0.0170779 0.00513748 0 0 0 0.145593 0.244046 -0.135586 0.05 
505 1 1 0.529454 0.300134 0.248862 0 0 0 -0.0351797 0.0239333 -0.0116133 0 0 0 -0.463233 -0.331127 0.20438 0.05 
487 1 1 0.659725 0.281022 0.231164 0 0 0 -0.00578127 -0.0177051 0.00774824 0 0 0 -0.136988 -0.105805 0.106993 0.05 
486 1 1 0.808942 0.325948 0.251112 0 0 0 -0.00465664 -0.0141155 -0.00169296 0 0 0 0.0908812 -0.155463 0.0670258 0.05 
544 1 1 0.908684 0.314511 0.231329 0 0 0 0.00562289 0.000248062 0.00373198 0 0 0 -0.120492 -0.0248203 0.234115 0.05 
179 1 1 0.244461 0.370651 0.247952 0 0 0 -0.00378982 0.0108371 0.00687578 0 0 0 -0.170559 0.0853388 -0.0989869 0.05 
175 1 1 0.413148 0.385716 0.266162 0 0 0 0.00982317 0.0135719 0.00458689 0 0 0 0.00158596 0.204484 -0.0686026 0.05 
17 1 1 0.616379 0.371215 0.231994 0 0 0 -0.0129289 -0.00288245 -0.00217177 0 0 0 -0.131051 -0.06631 -0.123532 0.05 
612 1 1 0.715457 0.384503 0.250364 0 0 0 -0.00496188 -0.0157578 -0.00457084 0 0 0 -0.173577 0.023069 -0.100704 0.05 
11 1 1 0.121121 0.423115 0.229722 0 0 0 0.00642328 0.0177557 -0.000500383 0 0 0 0.201493 -0.0828501 -0.210181 0.05 
342 1 1 0.328128 0.438762 0.251819 0 0 0 -0.00781381 0.0173306 -0.00433489 0 0 0 -0.0406869 -0.0675284 0.130054 0.05 
422 1 1 0.512336 0.400189 0.256207 0 0 0 -0.00276127 -0.00377141 0.00631339 0 0 0 -0.0871199 0.113148 0.0950971 0.05 
570 1 1 0.847932 0.422139 0.225513 0 0 0 0.0127227 -0.0123961 0.00124967 0 0 0 -0.0241122 -0.175464 0.0518753 0.05 
518 1 1 0.949358 0.402636 0.27174 0 0 0 0.00171046 -0.0187858 0.0130286 0 0 0 -0.112554 -0.0999356 0.110349 0.05 
27 1 1 0.21814 0.470476 0.251708 0 0 0 -0.00931889 0.0234726 0.00323456 0 0 0 0.0827852 -0.0225914 0.0910991 0.05 
517 1 1 0.748265 0.483386 0.240876 0 0 0 0.00509948 -0.010228 0.0029382 0 0 0 0.0925013 -0.0260667 0.00435914 0.05 
625 1 1 0.943317 0.495062 0.223516 0 0 0 -0.00580425 -0.00512293 -0.00354338 0 0 0 0.0267756 -0.171902 0.197131 0.05 
261 1 1 0.499601 0.0948538 0.294656 0 0 0 -0.0113908 -0.0037372 -0.00106424 0 0 0 0.34118 -0.543149 0.703652 0.05 
106 1 1 0.949529 0.100191 0.31138 0 0 0 -0.00393511 -0.015658 -0.00610424 0 0 0 0.0863369 -0.118359 0.321311 0.05 
259 1 1 0.21106 0.141309 0.284368 0 0 0 0.0133273 0.000438417 -0.0234578 0 0 0 0.908443 -0.520774 0.1082 0.05 
265 1 1 0.732048 0.131664 0.304082 0 0 0 -0.00384013 0.018878 0.0020838 0 0 0 0.312251 -0.138124 0.454648 0.05 
275 1 1 0.0538683 0.222093 0.304411 0 0 0 0.0213068 0.00240414 0.00420372 0 0 0 0.125687 -0.0871443 0.109318 0.05 
100 1 1 0.272825 0.213805 0.319477 0 0 0 -0.0210653 0.00409011 0.00684245 0 0 0 0.0435762 0.0354695 0.06093 0.05 
539 1 1 0.597964 0.228153 0.299312 0 0 0 -0.000641228 0.00664152 0.0114575 0 0 0 -0.140526 -0.0520295 0.0608565 0.05 
560 1 1 0.692061 0.268398 0.330003 0 0 0 -0.00474791 0.000766842 -0.00312542 0 0 0 -0.133327 -0.222475 -0.00686332 0.05 
627 1 1 0.855399 0.255313 0.315329 0 0 0 0.00185036 -0.0118157 0.00652614 0 0 0 -0.0311971 -0.127458 -0.0848088 0.05 
429 1 1 0.343373 0.292227 0.330287 0 0 0 -0.00713337 0.00465666 0.00335654 0 0 0 0.0746139 0.0154611 0.0282126 0.05 
184 1 1 0.443263 0.28324 0.299615 0 0 0 -0.0217768 0.00151532 -0.00163643 0 0 0 0.285799 -0.0545546 -0.0220819 0.05 
607 1 1 0.604541 0.330467 0.330598 0 0 0 -0.0272001 0.0021149 0.00110049 0 0 0 -0.00154348 -0.159099 -0.0494139 0.05 
359 1 1 0.0630484 0.340027 0.329587 0 0 0 -0.0138289 0.00455915 -0.00653149 0 0 0 0.0873781 -0.0258226 -0.32015 0.05 
196 1 1 0.167977 0.37619 0.317697 0 0 0 -0.00825365 0.00590914 0.00475651 0 0 0 0.0218051 -0.0634606 -0.106686 0.05 
280 1 1 0.0505212 0.43903 0.303632 0 0 0 0.0134785 0.0144757 -0.00209293 0 0 0 0.112519 0.0559467 0.353717 0.05 
577 1 1 0.860191 0.403628 0.323128 0 0 0 0.00430013 -0.0125471 -0.00441603 0 0 0 -0.0980606 0.0261492 -0.07773 0.05 
354 1 1 0.138449 0.484397 0.330341 0 0 0 -0.0107384 0.0124961 -0.000559359 0 0 0 0.0268986 0.0558715 0.0662879 0.05 
347 1 1 0.416061 0.468642 0.327722 0 0 0 -0.00203384 0.0137728 0.00442764 0 0 0 0.0168031 0.12088 -0.145093 0.05 
423 1 1 0.508611 0.495832 0.296236 0 0 0 0.0096015 -0.00468123 0.00127144 0 0 0 -0.0353604 -0.0451239 -0.0675904 0.05 
619 1 1 0.651639 0.452277 0.290665 0 0 0 -0.002759 -0.027173 -0.000657128 0 0 0 0.0459094 0.0686714 -0.0532648 0.05 
23 1 1 0.107449 0.051915 0.34187 0 0 0 -0.00214996 0.00247981 -0.00257976 0 0 0 0.218492 0.0888262 0.783121 0.05 
426 1 1 0.2777 0.0939391 0.354386 0 0 0 -0.0168981 -0.00583353 -0.0128559 0 0 0 0.234288 0.262888 -0.0427965 0.05 
339 1 1 0.418116 0.16063 0.347214 0 0 0 -0.0181195 -0.00270547 0.0064684 0 0 0 0.373426 0.298748 -0.12016 0.05 
22 1 1 0.605838 0.109981 0.336636 0 0 0 -0.023031 -0.0132268 0.0069371 0 0 0 0.126456 -0.130033 0.155737 0.05 
628 1 1 0.854568 0.162216 0.372643 0 0 0 0.00107319 -0.0151136 0.00727519 0 0 0 -0.143996 -0.174864 0.0128828 0.05 
205 1 1 0.178204 0.227548 0.374405 0 0 0 0.0218644 0.0165977 0.00637404 0 0 0 -0.151687 -0.269382 -0.0692564 0.05 
190 1 1 0.516544 0.237786 0.360793 0 0 0 -0.0191841 0.000179544 0.0198985 0 0 0 0.0212884 0.0445214 0.392191 0.05 
629 1 1 0.940242 0.222115 0.368457 0 0 0 -0.00233661 -0.0158313 -0.00512583 0 0 0 0.0467537 0.0481243 -0.093013 0.05 
337 1 1 0.245488 0.313932 0.339872 0 0 0 -0.00690314 0.0036184 0.00168428 0 0 0 -0.0265533 0.187145 0.11459 0.05 
576 1 1 0.947276 0.326633 0.341231 0 0 0 -0.00296505 -0.00809495 -0.00275228 0 0 0 -0.185983 0.0499535 0.00774297 0.05 
349 1 1 0.48972 0.355023 0.356605 0 0 0 -0.000744483 -0.00192399 -0.0179584 0 0 0 -0.0567145 0.0532588 -0.105935 0.05 
617 1 1 0.761878 0.349763 0.349568 0 0 0 6.37388e-06 -0.00481485 -0.000845432 0 0 0 0.175635 0.0655681 -0.226504 0.05 
36 1 1 0.23014 0.411888 0.387965 0 0 0 -0.0106547 0.0146342 0.00343689 0 0 0 -0.221151 0.281184 0.114136 0.05 
117 1 1 0.323776 0.424074 0.351698 0 0 0 -0.00566031 0.0152048 -0.0137024 0 0 0 0.0252933 0.09587 0.0319359 0.05 
541 1 1 0.564307 0.427648 0.349653 0 0 0 -0.00252193 -0.00827105 0.00598989 0 0 0 -0.00557512 -0.373571 0.0720903 0.05 
595 1 1 0.946925 0.419038 0.383778 0 0 0 0.0138837 -0.00778548 0.00236278 0 0 0 0.180928 0.109413 0.253541 0.05 
483 1 1 0.763941 0.449778 0.365766 0 0 0 0.00318299 -0.020232 -0.00208572 0 0 0 -0.234137 0.116819 -0.184643 0.05 
264 1 1 0.156487 0.0520447 0.436417 0 0 0 -0.0362531 0.000362312 -0.00337274 0 0 0 -0.278166 -0.262504 -1.89104 0.05 
194 1 1 0.826578 0.0531729 0.389577 0 0 0 -0.0194439 0.00510983 -0.00963806 0 0 0 -0.0728281 0.0546862 -0.816743 0.05 
18 1 1 0.0540003 0.054076 0.432002 0 0 0 -0.00276226 -0.0110819 0.00882211 0 0 0 0.0299068 0.374982 -0.263476 0.05 
105 1 1 0.499645 0.0774714 0.402392 0 0 0 -0.0546148 -0.0052832 0.0090982 0 0 0 0.456767 -0.479303 -1.65236 0.05 
582 1 1 0.943938 0.07933 0.418541 0 0 0 0.000456416 -0.0240193 -0.00706115 0 0 0 -0.214538 -0.011035 0.156223 0.05 
116 1 1 0.217748 0.144016 0.419328 0 0 0 -0.00135443 -0.00548265 0.000453848 0 0 0 -0.247434 0.10245 0.153124 0.05 
115 1 1 0.760164 0.112784 0.436298 0 0 0 -0.0125256 -0.00408385 0.00994514 0 0 0 0.185723 0.255158 0.534168 0.05 
356 1 1 0.326547 0.21138 0.416634 0 0 0 0.00211786 0.00783075 0.0312082 0 0 0 -0.0370054 -0.0785628 0.264199 0.05 
566 1 1 0.711598 0.190956 0.392412 0 0 0 -0.0303998 -0.00490051 0.0107476 0 0 0 -0.227648 0.0437618 -0.216919 0.05 
54 1 1 0.054207 0.273889 0.414952 0 0 0 0.0107221 0.0196808 -0.0235745 0 0 0 0.0479699 -0.0866611 0.290766 0.05 
25 1 1 0.422118 0.262053 0.39633 0 0 0 -0.0208278 -0.00983883 -0.0173812 0 0 0 -0.0370581 -0.625967 -0.0438154 0.05 
565 1 1 0.624492 0.245067 0.402796 0 0 0 -0.010226 -0.00593416 0.00740964 0 0 0 0.272004 0.297951 -0.0527786 0.05 
573 1 1 0.800207 0.254414 0.40512 0 0 0 0.0102554 -0.00362418 -0.00517308 0 0 0 -0.0676225 0.302738 0.0182567 0.05 
214 1 1 0.166822 0.323781 0.406588 0 0 0 0.00567073 0.0310869 -0.000662536 0 0 0 -0.0829035 -0.0878648 0.218791 0.05 
351 1 1 0.259326 0.305774 0.440257 0 0 0 -0.0125286 0.00930163 0.000423158 0 0 0 -0.0763383 0.174968 -0.0761797 0.05 
35 1 1 0.512278 0.297553 0.443476 0 0 0 -0.0132595 -0.00154045 0.00219685 0 0 0 -0.207456 -0.00582531 -0.169561 0.05 
585 1 1 0.692077 0.331702 0.422293 0 0 0 -0.000992235 -0.000131444 0.00892484 0 0 0 -0.205253 0.0472753 0.0320699 0.05 
352 1 1 0.395158 0.361446 0.390137 0 0 0 -0.0114319 0.0127857 -0.00425779 0 0 0 -0.05009 0.0890416 -0.168726 0.05 
562 1 1 0.597022 0.368014 0.442046 0 0 0 -0.00566329 0.000991859 0.00474925 0 0 0 0.0885941 -0.110967 0.117798 0.05 
558 1 1 0.846129 0.353558 0.414886 0 0 0 -0.00121652 -0.0255008 0.00288477 0 0 0 0.0594788 0.0401666 -0.14186 0.05 
45 1 1 0.0518584 0.415964 0.406711 0 0 0 0.00542023 0.00538758 0.00278974 0 0 0 -0.0305082 -0.0467823 0.0396346 0.05 
34 1 1 0.464262 0.43179 0.416795 0 0 0 -5.29387e-05 -0.00395851 -0.00300628 0 0 0 -0.12795 0.0129411 0.0554581 0.05 
622 1 1 0.666211 0.437925 0.391683 0 0 0 -0.00163049 0.0015636 0.00979189 0 0 0 -0.078848 0.118148 0.0239085 0.05 
624 1 1 0.853144 0.453762 0.416757 0 0 0 0.00409907 -0.0166001 0.00197035 0 0 0 -0.0820541 -0.183684 0.0479339 0.05 
33 1 1 0.287923 0.0510248 0.461611 0 0 0 -0.0207999 0.0112734 -0.0230053 0 0 0 0.493588 0.253888 -0.213086 0.05 
436 1 1 0.57856 0.052419 0.488443 0 0 0 -0.0649581 -0.00382591 0.0166935 0 0 0 -0.141881 0.211123 -2.32466 0.05 
430 1 1 0.396636 0.096737 0.455284 0 0 0 -0.00926461 -0.00833585 0.00260917 0 0 0 0.0726988 -0.181044 -0.338514 0.05 
431 1 1 0.585392 0.149608 0.46229 0 0 0 -0.0288219 0.00293143 0.00012268 0 0 0 -0.276526 -0.0581778 1.13426 0.05 
631 1 1 0.855572 0.154565 0.485089 0 0 0 -0.000522115 -0.0234021 0.00634093 0 0 0 -0.25809 0.148949 0.071671 0.05 
425 1 1 0.129884 0.168631 0.462269 0 0 0 -0.0088308 0.00804179 0.00512243 0 0 0 0.148546 -0.089619 -0.303549 0.05 
358 1 1 0.45938 0.184017 0.448951 0 0 0 -0.038251 -0.000746271 0.00306157 0 0 0 0.199121 -0.148003 -0.368778 0.05 
630 1 1 0.752272 0.199081 0.491176 0 0 0 -0.0113989 0.0139954 -0.0231205 0 0 0 -0.0687527 -0.47032 -0.334047 0.05 
201 1 1 0.126467 0.273494 0.485259 0 0 0 0.0335577 0.018986 0.0186266 0 0 0 0.0427644 -0.119021 -0.49528 0.05 
121 1 1 0.216135 0.225172 0.488392 0 0 0 -0.014847 0.0113917 -0.0213404 0 0 0 -0.214075 -0.0662685 0.0287938 0.05 
608 1 1 0.851469 0.271581 0.49201 0 0 0 -0.00761089 -0.0169147 0.00531516 0 0 0 0.110649 0.00247377 -0.0684666 0.05 
606 1 1 0.947904 0.255982 0.466517 0 0 0 0.00203803 -0.0115496 0.00727864 0 0 0 0.0234468 -0.108379 0.173197 0.05 
114 1 1 0.358515 0.316479 0.473143 0 0 0 -0.00112927 0.0118764 -0.00819051 0 0 0 -0.0924898 0.269857 0.273159 0.05 
40 1 1 0.0522699 0.361514 0.497997 0 0 0 0.0119688 0.0137904 -0.0080219 0 0 0 0.368508 0.201972 0.36945 0.05 
597 1 1 0.944234 0.364863 0.469942 0 0 0 0.00512501 -0.0164288 -0.00548072 0 0 0 -0.119477 -0.0508185 0.201155 0.05 
125 1 1 0.153187 0.420611 0.452409 0 0 0 -0.00793987 0.0127217 -0.0107776 0.507802 -0.762984 0.343943 0.0806633 -0.0317522 0.121872 0.05 
368 1 1 0.3005 0.442896 0.453342 0 0 0 -0.00108928 0.013073 -0.00151445 0 0 0 -0.104233 -0.0264666 -0.156694 0.05 
112 1 1 0.403069 0.406092 0.493549 0 0 0 0.00355969 -0.00171316 -0.0088791 0 0 0 0.0454991 -0.100481 -0.130374 0.05 
119 1 1 0.511152 0.398102 0.500769 0 0 0 0.0103758 0.00471964 0.00662861 0 0 0 -0.0216283 0.0428534 0.0998175 0.05 
580 1 1 0.764685 0.397862 0.456063 0 0 0 0.00377142 -0.00928471 0.000815943 0 0 0 0.216538 -0.109295 0.122539 0.05 
294 1 1 0.221466 0.492823 0.494401 0 0 0 -0.000279061 0.0208354 -0.00478389 -0.0176814 2.91115 -0.169953 0.0218673 -0.028911 -0.109209 0.05 
618 1 1 0.594419 0.48776 0.476933 0 0 0 0.00605669 -0.00813149 0.00957324 0 0 0 0.00902982 -0.131165 0.291715 0.05 
559 1 1 0.799042 0.495742 0.499156 0 0 0 0.00338686 -0.0183177 -0.000543173 0 0 0 -0.158404 -0.151976 -0.230828 0.05 
604 1 1 0.936776 0.476694 0.466753 0 0 0 0.00528774 -0.00699461 -0.0113253 0 0 0 -0.169142 0.224702 0.0750622 0.05 
197 1 1 0.113337 0.0761507 0.5263 0 0 0 -0.00251169 -0.0040682 0.00312998 0 0 0 -0.267175 -0.0339775 0.542109 0.05 
282 1 1 0.205784 0.113846 0.532229 0 0 0 -0.000678803 0.0151045 0.02833 0 0 0 -0.0108424 -0.461968 -0.262139 0.05 
189 1 1 0.438231 0.0590637 0.544499 0 0 0 0.0049287 -0.0229668 -0.012727 0 0 0 -0.490134 -0.356549 -0.58692 0.05 
204 1 1 0.915587 0.058263 0.518991 0 0 0 -0.00447358 -0.0195162 0.000847305 0 0 0 0.116789 -0.00321048 -0.253325 0.05 
123 1 1 0.51069 0.130649 0.541576 0 0 0 -0.00532593 0.00665077 -0.0101985 0 0 0 -0.0292942 -0.189815 0.574094 0.05 
437 1 1 0.742767 0.114142 0.543755 0 0 0 -0.0226816 -0.0123966 0.0098526 0 0 0 -0.209903 -0.348246 0.151688 0.05 
613 1 1 0.946382 0.161606 0.532194 0 0 0 -0.00277852 -0.012102 0.0032676 0 0 0 0.0158851 0.0906738 0.288778 0.05 
120 1 1 0.0509331 0.207211 0.518126 0 0 0 0.00960852 0.0142171 0.00487627 0 0 0 -0.10288 -0.226735 0.258076 0.05 
211 1 1 0.334929 0.194331 0.515087 0 0 0 -0.0173553 -0.00545554 -0.0308651 0 0 0 0.0312717 0.567354 0.130553 0.05 
357 1 1 0.432883 0.262576 0.5164 0 0 0 -0.00158667 -0.00691034 -0.00640321 0 0 0 0.181256 -0.277638 -0.444948 0.05 
446 1 1 0.542665 0.225851 0.52 0 0 0 -0.0214129 0.00830797 0.0101483 0 0 0 0.196554 0.309757 -1.19231 0.05 
202 1 1 0.28668 0.280754 0.539428 0 0 0 0.000717794 0.00488952 -0.00199476 0 0 0 0.0473694 -0.210162 -0.287523 0.05 
124 1 1 0.640885 0.304203 0.516615 0 0 0 -0.00139707 -0.0169053 0.00311658 0 0 0 -0.121522 0.118467 0.0539649 0.05 
555 1 1 0.748091 0.306358 0.517818 0 0 0 -0.000475239 -0.0252744 0.00472845 0 0 0 0.0112386 0.100565 0.00109818 0.05 
447 1 1 0.13931 0.386221 0.548794 0 0 0 -0.00273559 0.0172018 -0.00423563 0 0 0 0.0545778 0.0411684 -0.114481 0.05 
443 1 1 0.232556 0.395003 0.511744 0 0 0 0.00442528 0.0134114 0.00178709 0.0176814 -2.91115 0.169953 0.0614448 -0.0301949 0.0314885 0.05 
614 1 1 0.615355 0.40202 0.538282 0 0 0 -0.00309108 -0.00583988 0.00638365 0 0 0 0.141881 -0.0934268 -0.0786391 0.05 
611 1 1 0.858472 0.403868 0.508875 0 0 0 -0.00473054 -0.0133077 -0.00245542 0 0 0 0.0383851 0.151238 -0.0822526 0.05 
372 1 1 0.114008 0.486673 0.526922 0 0 0 0.00584277 0.0117693 -0.00395888 0 0 0 -0.0319675 -0.0940937 0.082778 0.05 
579 1 1 0.673406 0.48838 0.549485 0 0 0 -0.000838557 -0.0140022 -2.09291e-05 0 0 0 -0.163863 0.0682255 -0.0359364 0.05 
47 1 1 0.629561 0.0518641 0.591438 0 0 0 -0.0417176 -0.0244611 -0.0190177 0 0 0 0.20456 0.0601499 0.193129 0.05 
208 1 1 0.812069 0.0509695 0.580419 0 0 0 -0.0453917 0.0321165 0.000118461 0 0 0 0.0117563 0.0856154 -2.32623 0.05 
308 1 1 0.309511 0.0731387 0.589176 0 0 0 -0.0307208 -0.00376837 -0.0347109 0 0 0 0.295122 0.135965 0.17293 0.05 
32 1 1 0.0531312 0.122977 0.5958 0 0 0 0.0218956 0.0140358 0.0152583 0 0 0 -0.553222 -0.496979 0.449023 0.05 
49 1 1 0.855636 0.14972 0.587222 0 0 0 0.00516177 -0.00472383 0.00328603 0 0 0 -0.0774878 -0.153271 0.364257 0.05 
281 1 1 0.134448 0.184763 0.577282 0 0 0 0.00343722 0.0264636 0.0205111 0 0 0 0.137935 -0.207374 0.123626 0.05 
50 1 1 0.23451 0.203019 0.585586 0 0 0 -0.0142755 0.0160716 -0.00240388 0 0 0 -0.00535943 -0.171799 -0.211753 0.05 
603 1 1 0.699936 0.236253 0.597257 0 0 0 -0.00999888 -0.0143585 -0.000988929 0 0 0 -0.166961 -0.0461773 -0.257965 0.05 
363 1 1 0.0756501 0.292381 0.571898 0 0 0 -0.00909239 0.027733 -0.00192078 0 0 0 -0.294202 0.245334 0.228145 0.05 
457 1 1 0.189412 0.297932 0.563692 0 0 0 -0.00756992 0.00740011 -0.000275263 0 0 0 -0.124977 -0.097956 0.0889111 0.05 
206 1 1 0.369997 0.327896 0.581379 0 0 0 -0.000107412 0.0150517 -0.00577545 0 0 0 0.220581 0.0459786 0.0805463 0.05 
578 1 1 0.94201 0.303158 0.565183 0 0 0 -0.00199302 -0.00638714 -0.000998314 0 0 0 0.0546699 0.0255862 -0.0656707 0.05 
43 1 1 0.47532 0.33857 0.596883 0 0 0 -0.00376422 0.00833188 0.0134603 0 0 0 -0.0610279 -0.142581 0.117419 0.05 
593 1 1 0.577194 0.335821 0.603827 0 0 0 -0.0101228 -0.0103131 0.00377904 0 0 0 -0.0104045 0.104745 -0.132716 0.05 
682 1 1 0.680183 0.358253 0.602797 0 0 0 -0.00549181 -0.0155477 -0.000602839 0 0 0 0.0949648 0.0676734 0.00200844 0.05 
568 1 1 0.822725 0.338342 0.581719 0 0 0 -0.0105898 -0.0105854 0.00234875 0 0 0 -0.0424956 -0.00696255 0.0207301 0.05 
218 1 1 0.0514968 0.410798 0.592402 0 0 0 0.00460115 0.0248253 -0.014458 0 0 0 -0.214707 0.190994 0.437053 0.05 
42 1 1 0.347465 0.442525 0.570114 0 0 0 -0.00692947 0.00539951 -0.00325049 0 0 0 0.120446 -0.199021 -0.0474541 0.05 
572 1 1 0.758045 0.416349 0.558243 0 0 0 0.00108701 -0.0123294 -0.00248679 0 0 0 -0.0051333 -0.00303918 -0.0325513 0.05 
574 1 1 0.949241 0.436616 0.562399 0 0 0 -0.015927 -0.0128876 0.00258304 0 0 0 0.10386 -0.0278547 0.25384 0.05 
298 1 1 0.192005 0.462372 0.591937 0 0 0 0.00152394 0.0162017 -0.00290083 0 0 0 0.0168342 -0.0161715 0.0016445 0.05 
440 1 1 0.455668 0.459124 0.571945 0 0 0 -0.00624525 0.00518016 0.0243076 0 0 0 -0.122291 -0.192729 -0.041805 0.05 
128 1 1 0.550035 0.450424 0.610848 0 0 0 0.00115597 0.000135702 0.0101715 0 0 0 -0.0659282 0.0440292 -0.107225 0.05 
295 1 1 0.200162 0.0647529 0.654742 0 0 0 -0.0282479 0.00873747 -0.0134154 0 0 0 -0.703906 -0.17177 -0.0581991 0.05 
376 1 1 0.707776 0.0965385 0.636468 0 0 0 -0.012784 -0.0101695 0.00925331 0 0 0 -0.101048 0.201545 0.07818 0.05 
435 1 1 0.471678 0.152835 0.643876 0 0 0 -0.0021056 0.00297978 -0.0125435 0 0 0 -0.0646471 0.0558695 -0.064162 0.05 
213 1 1 0.943401 0.114073 0.630248 0 0 0 -0.000531918 -0.0227828 0.0103237 0 0 0 -0.115363 0.0362874 -0.165033 0.05 
378 1 1 0.371629 0.17943 0.638317 0 0 0 -0.0218832 0.0136337 -0.0183761 0 0 0 -0.071749 -0.319133 0.183972 0.05 
297 1 1 0.618229 0.191542 0.641897 0 0 0 -0.0131171 -0.00549379 -0.0110161 0 0 0 0.209728 0.121935 -0.0181273 0.05 
666 1 1 0.946922 0.217383 0.636328 0 0 0 0.00718907 -0.0182058 -0.00171877 0 0 0 0.0564772 -0.122819 0.0950621 0.05 
303 1 1 0.0803279 0.22771 0.66352 0 0 0 -0.0124304 0.00483497 -0.00862062 0 0 0 0.301948 -0.631551 0.107001 0.05 
64 1 1 0.191867 0.273182 0.664707 0 0 0 -0.0177384 0.015797 0.00401744 0 0 0 0.0636354 0.0379159 -0.185817 0.05 
299 1 1 0.288716 0.270662 0.639262 0 0 0 0.00303966 0.000125162 0.00175599 0 0 0 0.060501 -0.0481143 -0.125651 0.05 
287 1 1 0.517492 0.247667 0.618604 0 0 0 -0.0229936 0.00449807 0.00585789 0 0 0 -0.154924 0.0422228 0.0172281 0.05 
626 1 1 0.826949 0.247286 0.629135 0 0 0 -0.00418828 -0.0164536 0.00264443 0 0 0 0.085849 0.0991641 0.101268 0.05 
136 1 1 0.384775 0.0507696 0.664621 0 0 0 -0.0126744 0.00250804 -0.0180986 0 0 0 0.22847 -0.139566 0.0227065 0.05 
134 1 1 0.183382 0.371164 0.63822 0 0 0 -0.00685435 0.00734307 -0.00114332 0 0 0 0.0749962 0.0540549 -0.191713 0.05 
290 1 1 0.28602 0.374082 0.611281 0 0 0 -0.0113172 0.0178503 -0.00103184 0 0 0 0.00734646 -0.121695 0.0345426 0.05 
453 1 1 0.40491 0.400947 0.66354 0 0 0 -0.0116696 0.00887945 -0.0135175 0 0 0 0.206626 0.0307928 0.0891741 0.05 
615 1 1 0.734453 0.42247 0.664899 0 0 0 -0.0124525 -0.0130934 -0.00391561 0 0 0 -0.047678 0.0184779 -0.00800991 0.05 
691 1 1 0.887238 0.397987 0.635623 0 0 0 0.000164886 -0.0197992 -0.0109873 0 0 0 0.0830068 -0.0136252 0.0893875 0.05 
293 1 1 0.120592 0.455818 0.663891 0 0 0 -0.000995166 0.0231901 0.00354693 -0.339665 0.229259 -0.243231 0.054636 0.10359 -0.331008 0.05 
703 1 1 0.84956 0.491918 0.639344 0 0 0 -0.00125869 -0.0173874 2.56051e-05 0 0 0 0.0387375 0.172407 -0.0613365 0.05 
316 1 1 0.280616 0.0545952 0.716702 0 0 0 -0.0144257 0.0165465 0.0071215 0 0 0 0.108079 0.611221 -1.95162 0.05 
634 1 1 0.948252 0.498508 0.946071 0 0 0 0.0124812 -0.0127982 -0.002228 0 0 0 -0.0980522 0.0256285 0.118451 0.05 
366 1 1 0.532356 0.0506811 0.697037 0 0 0 -0.0510194 0.0181305 0.0220838 0 0 0 -0.394555 0.0510228 -1.07958 0.05 
449 1 1 0.783816 0.0667381 0.697055 0 0 0 -0.0168417 -0.00499556 -0.00925646 0 0 0 -0.0686175 -0.0658335 0.726155 0.05 