ITEM: TIMESTEP
0
ITEM: NUMBER OF ATOMS
1764
ITEM: BOX BOUNDS pp pp pp
0 0.01
0 0.001
0 0.002
ITEM: ATOMS id type type x y z ix iy iz vx vy vz fx fy fz omegax omegay omegaz radius 
1147 1 1 0.00120054 0.000108132 0.000102151 2 3 -1 0.000569909 0.000106824 0.000167746 0 0 0 -0.199226 4.95511 -1.26416 0.0001 
1295 1 1 0.000932654 0.000301903 9.56413e-05 -2 4 0 0.000720992 -8.70711e-05 1.16742e-05 -0.0140685 0.0241807 0.0318027 4.47313 9.33534 1.41981 0.0001 
169 1 1 0.0013516 0.000279104 0.000102074 3 -2 0 0.000667567 0.000272627 0.000209887 0 0 0 -3.8064 7.02802 1.1231 0.0001 
864 1 1 0.000698326 0.000372416 0.00010443 1 1 0 0.000390651 0.000354051 0.00072012 -0.00723306 0.000620755 -0.00110338 -4.07492 2.42256 -5.04983 0.0001 
1232 1 1 0.000266445 0.000473436 9.71458e-05 -1 -3 1 -4.1615e-05 -9.13025e-05 7.40559e-05 0.00461329 0.0116079 0.0122876 2.55215 0.727861 2.10784 0.0001 
1035 1 1 0.000469065 0.000448428 0.000101404 2 0 1 0.000209192 8.0033e-05 8.98398e-05 0.00181801 0.000444841 0.000167687 -1.87906 2.02094 0.930173 0.0001 
1674 1 1 9.92606e-05 0.000578909 9.67326e-05 3 4 0 -8.68406e-07 1.47144e-05 0.000213884 0.00226788 -0.00189906 0.00463769 2.37576 -4.17535 -2.88605 0.0001 
1308 1 1 0.000744105 0.000746435 9.49748e-05 -2 -3 -1 0.000586321 -0.000507292 8.29666e-05 -0.00095517 0.00991611 0.010474 4.75709 6.87962 -6.30643 0.0001 
1502 1 1 0.00154504 0.000816917 9.82789e-05 -1 0 -1 0.000514226 0.000231083 0.000113887 0.00470912 -0.00580491 -0.00448725 -0.6022 2.98417 2.78342 0.0001 
17 1 1 0.000923499 0.000103479 0.000107676 0 1 -1 0.000703976 -0.000111042 -0.000316603 0.00134015 -0.00253509 -0.000270791 1.25229 0.202936 -2.84723 0.0001 
1067 1 1 0.00141166 0.000104092 0.000201347 4 0 -2 0.000875459 9.84723e-05 -4.13855e-05 0 0 0 0.816627 3.22362 -8.96945 0.0001 
867 1 1 0.00161886 0.000106939 0.000175636 1 1 0 0.000405456 1.69994e-05 0.00050326 0 0 0 4.05007 -1.57239 -5.88344 0.0001 
1204 1 1 0.000137802 0.000183557 0.0001081 0 1 2 8.49895e-05 -9.9603e-05 0.000465834 0 0 0 3.28227 0.452114 17.7995 0.0001 
1430 1 1 0.000628485 0.00017527 0.000144255 -1 -3 1 0.000430399 -0.000230359 -0.000591211 0 0 0 -3.88965 -6.01195 -5.55459 0.0001 
803 1 1 0.000362884 0.00028022 0.000117459 2 -1 -1 0.000538427 0.000246067 -0.000126342 -0.00181801 -0.000444841 -0.000167687 10.4236 3.57246 -10.826 0.0001 
1127 1 1 0.00161424 0.000313174 0.000205782 -2 5 2 0.00114632 0.000308831 0.000507192 0 0 0 -1.63459 -13.84 2.01618 0.0001 
1379 1 1 9.86851e-05 0.000393116 0.0001692 0 3 0 -1.17817e-05 -0.000380096 -0.000151341 0.00413825 0.00460084 0.003429 -0.575446 1.08731 -1.65231 0.0001 
969 1 1 0.00107894 0.000442994 0.000150775 -3 3 1 0.000859468 0.000399152 -0.000332314 0 0 0 -3.4359 -4.72258 -5.26187 0.0001 
1201 1 1 0.0008588 0.000480495 0.00014773 0 3 0 0.000670278 0.000380537 -0.000624651 0.00723656 -0.000617986 0.00111703 -4.88638 7.12903 4.22409 0.0001 
1679 1 1 0.00142662 0.000470691 0.000159406 3 4 -1 0.00110867 -0.000731474 0.000275075 0 0 0 -1.11789 2.3277 -0.0149009 0.0001 
305 1 1 0.000402879 0.00063937 0.000116693 4 -1 0 0.000223361 6.31162e-05 0.000450176 0 0 0 -2.76804 5.49396 -1.05076 0.0001 
319 1 1 0.000647411 0.000592895 0.000198358 1 4 2 0.000905268 0.00036424 3.26819e-05 0 0 0 -3.94722 0.0671534 -1.64157 0.0001 
337 1 1 0.00117393 0.000658577 0.000112344 3 -1 -1 0.00155336 0.000641067 -0.000196346 0 0 0 4.28413 2.27113 9.27454 0.0001 
408 1 1 0.000974845 0.000679577 0.000136138 3 0 1 0.000923709 0.000123736 -0.000435043 0 0 0 -1.87253 -9.03248 -1.63235 0.0001 
1451 1 1 0.00137625 0.000725374 0.000143685 1 -3 2 0.000562494 1.21883e-05 -0.000151812 0.00711016 -0.0280159 -0.0109399 3.00877 -3.16249 -0.524779 0.0001 
1759 1 1 0.000490328 0.000807823 0.000180698 3 0 -1 0.000636739 0.000170857 0.000426883 -0.00971405 0.0181488 -0.0159389 13.6347 17.8808 3.74742 0.0001 
1234 1 1 0.000973004 0.000880073 0.000112032 1 1 0 0.000414682 -5.20133e-05 8.45448e-05 0 0 0 0.722084 3.38605 5.04276 0.0001 
660 1 1 0.00123528 0.00085594 0.00018207 1 -3 1 0.000367012 -0.000164248 0.000180335 -0.00246996 0.027435 -0.00149819 -2.52928 6.32396 5.49157 0.0001 
682 1 1 0.000110587 0.000889802 0.000116461 -1 0 1 1.82062e-06 0.000143742 0.00106707 0.00130426 0.00413017 -0.0212066 -3.5465 -5.91917 2.70251 0.0001 
183 1 1 0.000699744 0.000900303 0.000207378 0 0 -1 0.000229234 -2.11451e-05 0.000318442 0.00222695 -0.00617809 0.00355132 2.00627 -8.97295 5.52966 0.0001 
559 1 1 0.000285315 0.000102475 0.000247854 4 -3 -1 0.00080593 -6.10491e-05 -0.000496451 0 0 0 -5.01581 -7.85323 -4.49367 0.0001 
707 1 1 0.00107776 9.4263e-05 0.000264273 -2 1 1 0.000752828 -0.000120262 -0.000229281 -0.00169905 0.0484342 0.000115262 -2.3093 -9.2686 -8.63254 0.0001 
212 1 1 0.000808477 0.000171433 0.000257493 3 -5 0 0.000670107 7.86436e-05 -0.000155165 0.00677523 0.0110713 -0.012615 2.66137 -7.01304 -1.67171 0.0001 
1497 1 1 0.000104185 0.000238377 0.000306483 -1 0 -2 0.000412672 -0.000119046 4.57955e-05 0.0125128 0.0177063 -0.0144505 -1.07132 2.16346 -0.962013 0.0001 
1244 1 1 0.000492078 0.000237667 0.000293305 0 -1 1 0.000565823 -1.5214e-06 -0.000265329 -0.000184704 0.00182437 -0.000122787 8.17191 1.95376 -1.05022 0.0001 
832 1 1 0.0011911 0.000262406 0.000232981 0 2 0 0.000716728 -0.000276616 0.000534916 0.0103759 0.00171378 -0.0143251 2.96894 3.13497 4.4842 0.0001 
405 1 1 0.00139091 0.000311988 0.00029967 1 -2 0 0.00137579 -0.000495088 -3.80742e-05 0 0 0 -1.03559 -6.58789 -6.42229 0.0001 
766 1 1 0.000234162 0.000433975 0.000310835 -2 -4 0 0.000304506 0.000107697 -0.000841218 0 0 0 5.47762 -5.6808 3.07474 0.0001 
1692 1 1 0.000595816 0.000411898 0.000271556 3 2 0 0.000567545 0.000572978 0.000798488 0.0113985 -0.00843909 -0.00579035 2.55312 -2.51861 3.72457 0.0001 
843 1 1 0.00128647 0.000485043 0.000301646 4 -2 -3 0.00123016 -4.6532e-05 -0.000536869 -0.000342923 -0.0020891 -0.000613379 -0.366771 -0.66846 1.9626 0.0001 
471 1 1 0.000864406 0.000612385 0.000308045 2 1 -1 0.00166649 -0.000740366 -0.000341854 0 0 0 8.2526 6.52163 1.38451 0.0001 
32 1 1 0.00156739 0.000643677 0.000211846 -1 -1 -1 0.000835662 0.000223426 0.000391935 0 0 0 -4.17712 4.34013 -1.32504 0.0001 
580 1 1 0.000104507 0.00072666 0.000226335 -3 2 0 6.19012e-05 4.40699e-05 0.000248836 -0.00589182 0.00496895 0.0291071 -3.86518 4.34973 -2.1541 0.0001 
450 1 1 0.00143614 0.000877904 0.000255222 0 0 0 0.000910724 0.000243123 0.000210543 5.33089e-05 0.00634965 -0.000685831 0.65737 4.65521 0.422155 0.0001 
393 1 1 0.000639886 0.00010305 0.000332114 -2 9 0 0.000415535 -0.000203855 -0.000416684 -0.00677523 -0.0110713 0.012615 -0.873842 0.0819462 -0.227257 0.0001 
613 1 1 0.0013558 0.000108937 0.000408305 -1 0 0 0.00177901 -0.000542607 3.28757e-05 0 0 0 1.34632 12.8682 -5.81594 0.0001 
1387 1 1 0.00164101 9.89176e-05 0.000402162 1 -2 0 0.00126187 0.00022258 0.000179713 -0.00294728 0.00302988 -0.000702634 2.14349 4.21407 -14.1479 0.0001 
995 1 1 0.000312776 0.000257658 0.000378986 3 0 0 0.000441409 1.40652e-05 -1.32443e-05 3.31418e-05 -8.24818e-05 5.35717e-05 2.09022 -0.93893 -3.23177 0.0001 
1278 1 1 0.00096979 0.000249193 0.000348048 -2 -4 -1 0.00107306 -0.000379016 -3.13742e-05 0.00355912 -0.00625625 -0.00177595 6.30653 3.79173 -0.369042 0.0001 
261 1 1 0.000813444 0.000367744 0.000321301 1 -1 1 0.00107026 -0.000151083 -0.00036493 -0.00355912 0.00625625 0.00177595 -8.52774 -3.17775 -4.87301 0.0001 
1170 1 1 0.00111264 0.000424479 0.000384917 0 3 0 0.00143536 -0.00037373 0.000337593 0 0 0 8.29635 11.3483 -6.87108 0.0001 
1037 1 1 0.000430775 0.000484672 0.000353967 -2 2 0 0.000775097 -0.000228987 0.000624911 -0.00543075 0.007846 -0.00139546 -2.58491 -5.27654 -7.26651 0.0001 
1362 1 1 0.00149968 0.000476982 0.000392718 -1 2 -1 0.000807174 0.000137924 0.000916347 -0.0188918 0.00202719 -0.00759986 10.5512 2.34245 3.18789 0.0001 
460 1 1 0.000670734 0.00061478 0.000397645 -2 -1 2 0.000629381 -0.000661741 -0.00075888 0 0 0 -10.3705 -11.2664 -3.52466 0.0001 
170 1 1 0.000232005 0.000673887 0.000369035 -2 -1 0 0.000168226 -0.000707163 -0.000338037 -0.0115317 0.0142263 0.00682609 10.0401 1.55851 -2.36613 0.0001 
191 1 1 0.000422316 0.000708467 0.000335779 -1 1 0 0.000536806 0.000527938 0.000142313 0.0285541 -0.0384341 0.00177041 -7.70399 -4.50947 6.7404 0.0001 
909 1 1 0.00130665 0.000706583 0.000324542 1 0 1 0.000465207 -0.000333096 0.000124217 -0.0125858 -0.0053831 0.0192961 -0.889215 6.00743 -2.51166 0.0001 
609 1 1 0.000315956 0.000876378 0.000325304 -1 3 -1 0.000115056 0.000189381 -0.00105986 -0.016391 0.00331451 -0.0125639 -3.68288 4.55119 -1.71392 0.0001 
1413 1 1 0.000517034 0.000880203 0.000374377 3 0 4 3.54904e-05 -8.03997e-05 -0.000775217 0.0316182 0.0204614 -0.00671966 -0.364628 -2.84825 -1.13923 0.0001 
299 1 1 0.000718653 0.000859084 0.000397877 0 3 0 0.00023126 0.000130835 0.00032034 -0.000892569 0.0112198 0.0241675 -0.840768 11.1862 0.0483803 0.0001 
940 1 1 0.000107226 0.000899712 0.000329103 4 0 -1 -2.44734e-05 0.000230966 0.000294334 0 0 0 3.05412 -6.73604 -1.47315 0.0001 
469 1 1 0.000926228 0.000903007 0.000368926 1 0 -1 0.000711453 -8.92506e-05 0.000162916 0.0146564 -0.0176518 -0.00983753 -1.77303 10.9 7.03719 0.0001 
1553 1 1 0.00127287 0.000902145 0.000391559 -1 1 1 0.000366737 -0.000210766 0.000639429 0.00299893 -0.00991883 0.00205255 -6.49593 -1.35275 3.69521 0.0001 
1582 1 1 0.000454064 9.81977e-05 0.000430602 -1 1 1 0.000240325 -1.23135e-05 -0.0003679 -0.00247592 0.00671499 -0.00502575 -2.50478 -0.704271 -3.31113 0.0001 
8 1 1 0.000817216 9.56369e-05 0.000484348 -1 3 0 0.000894362 0.000825867 -0.000521563 0.0179804 0.0270179 -0.00965053 -4.25296 5.21908 -7.10056 0.0001 
1206 1 1 0.00011621 0.000111769 0.000455365 1 -2 2 0.000119573 0.000152783 7.11825e-05 -0.0125128 -0.0177063 0.0144505 -2.53908 0.28908 0.203091 0.0001 
556 1 1 0.000110271 0.000332524 0.000489578 -2 1 0 -0.000550894 -5.76391e-05 5.11802e-05 -0.00693362 -0.0351736 0.00592424 0.101377 0.878906 2.06937 0.0001 
604 1 1 0.00085434 0.0002946 0.000507991 -1 -4 1 0.00150669 -0.000218174 -0.000317542 0.000928258 -0.00149728 0.00174377 3.55004 5.26005 2.67906 0.0001 
1573 1 1 0.00122164 0.000259714 0.000427617 3 -2 -1 0.000968866 0.000166905 0.000488682 -0.0103759 -0.00171378 0.0143251 -5.39308 -2.12762 7.78332 0.0001 
478 1 1 0.00164757 0.000324409 0.000502195 1 0 1 0.00112212 1.02279e-05 0.000684441 0 0 0 -0.593638 1.57855 4.92687 0.0001 
1431 1 1 0.000613255 0.000409506 0.000469293 3 1 0 0.00148351 0.000193979 -0.000150061 -0.0185829 0.000897557 -0.0148122 -3.58702 -19.12 -21.2901 0.0001 
557 1 1 0.000224277 0.000489237 0.000504067 -1 -3 -1 7.76516e-05 -0.000112874 -0.000118153 0.00835087 0.0284345 -0.00773743 -1.74156 -1.63112 -2.96611 0.0001 
201 1 1 0.000795164 0.000484604 0.000502533 1 -2 1 0.000808367 -0.000236311 -2.03785e-05 0.00709975 -0.00770415 0.000108218 -5.17533 3.09614 4.22106 0.0001 
1373 1 1 0.000986957 0.000577427 0.000463405 2 1 0 0.00148115 -0.000421205 0.000119361 0 0 0 -9.51657 -9.31121 3.03983 0.0001 
567 1 1 0.00131297 0.000578237 0.000475795 3 -4 0 0.00181916 -0.000921234 -0.00020335 -0.00149312 0.00216045 0.00626277 4.86241 9.38605 0.300006 0.0001 
1463 1 1 0.00161751 0.000588376 0.000504338 2 -1 -1 0.000683446 0.000142985 0.0006 0.015696 -0.00476329 0.00500883 -12.7565 2.7583 -3.80733 0.0001 
332 1 1 0.000485075 0.000690936 0.000523282 4 2 -2 0.000953148 -0.000281917 -0.000661464 0.00108049 0.00528511 0.00639604 3.4526 7.41514 3.73025 0.0001 
275 1 1 0.001133 0.000731928 0.000434294 4 0 -1 0.000716936 0.000747861 0.000401048 0 0 0 0.578971 -2.54482 -1.86802 0.0001 
1699 1 1 0.00148223 0.000735443 0.000435989 3 -1 2 0.000907609 -0.00059185 0.000458798 0 0 0 2.64926 -2.5807 -0.238486 0.0001 
1290 1 1 0.00015712 0.000827768 0.000513803 -2 0 1 -8.89681e-05 -4.55502e-05 -0.000310947 0 0 0 0.365352 11.6186 10.5241 0.0001 
1610 1 1 0.000377871 0.000892568 0.000510635 -1 1 0 0.000218189 0.000167644 -0.000827654 -0.017208 -0.0205944 0.0221884 2.76181 -1.7009 0.555993 0.0001 
754 1 1 0.00102112 9.36736e-05 0.000539769 4 4 0 0.000534264 -0.000165239 1.49212e-05 -0.0295153 0.0309231 -0.0207565 -4.87438 -0.435298 1.33367 0.0001 
624 1 1 0.000301598 0.000138744 0.0005604 -2 -1 -1 0.000126432 -0.000557913 -0.000462563 -0.00393138 -0.00143783 -0.00936261 -2.9589 2.33929 4.56993 0.0001 
153 1 1 0.000542362 0.000185208 0.000617511 -2 5 0 0.000808683 0.000425276 -0.000155214 0 0 0 1.70823 -8.37891 -7.84235 0.0001 
1515 1 1 0.00158801 0.000139512 0.000614601 0 0 2 0.00197026 -0.000990869 0.000620806 0 0 0 1.77965 -3.66679 5.70654 0.0001 
16 1 1 0.00105487 0.00028377 0.000561887 -2 0 0 0.000868216 0.000973461 -0.000205075 0.00971607 0.0259382 0.000550945 6.99046 3.55892 -0.892509 0.0001 
1576 1 1 0.000391796 0.000404376 0.000594299 0 1 -1 0.000318475 0.000653436 -0.00109178 0.00421102 0.00521662 -0.00419974 5.76074 1.20383 2.55565 0.0001 
92 1 1 0.00133712 0.000414891 0.000599019 1 3 1 0.00184478 -0.00023504 -0.000741122 0 0 0 -5.95443 -7.04582 4.90063 0.0001 
472 1 1 0.000289611 0.000662999 0.00057357 -1 1 0 0.000330849 -0.000202054 -0.000411128 -0.00126983 0.00216077 0.000908269 -6.99104 -6.16294 -5.14718 0.0001 
800 1 1 0.000631696 0.000557855 0.000597151 3 -2 -2 0.0012466 0.000760598 -0.00108289 0.00970837 0.00256336 0.0191181 -5.86123 -9.57028 -5.79543 0.0001 
1748 1 1 0.000817037 0.000680148 0.000527399 1 -2 1 0.000750859 -0.000398385 -0.000203558 -0.00512475 0.00633084 0.00101433 5.51167 11.292 3.66946 0.0001 
1386 1 1 0.0010783 0.000863462 0.000598926 -1 -3 1 0.00102921 -0.000462362 -0.000585195 0 0 0 -7.14466 -0.789586 2.71526 0.0001 
1445 1 1 0.00128937 0.000867292 0.000595241 1 -4 0 0.00136686 -0.000110104 0.000660068 0 0 0 8.66144 6.00206 -1.60609 0.0001 
1734 1 1 0.00160117 0.00086239 0.000536575 -2 -3 0 0.000565472 7.46096e-05 0.000968628 0 0 0 2.82141 2.45712 13.2038 0.0001 
1144 1 1 0.000783245 0.000889849 0.000601757 0 0 1 0.000271378 -0.000179601 -0.00107651 0 0 0 0.175049 19.6507 -0.921595 0.0001 
1168 1 1 0.000127653 9.73067e-05 0.000691287 3 3 0 0.000351993 -0.000563474 -0.00103504 -0.0112442 0.0181457 0.014242 -1.41669 4.61486 3.57631 0.0001 
430 1 1 0.000724582 0.000210995 0.000706816 2 0 1 0.000660953 -0.000397633 5.63279e-05 0 0 0 0.0651923 4.68284 -3.89995 0.0001 
1222 1 1 0.00101174 0.000177185 0.000721781 2 1 0 0.000503089 0.000146506 0.000141032 0.00519792 -0.000593853 0.0141265 -4.25209 -8.55359 -8.78926 0.0001 
1632 1 1 0.00139691 0.000218927 0.000641077 -1 0 0 0.00106683 0.000187128 -0.000664188 -0.00715939 0.0311087 -0.064416 -4.57473 -0.0429985 -4.75053 0.0001 
1105 1 1 0.000237113 0.000303011 0.000662983 0 -1 0 0.000206451 0.000209274 -0.000887483 -0.0101999 -0.00742497 -0.0075838 -3.83995 2.79175 -4.337 0.0001 
1049 1 1 0.00118854 0.000300545 0.000716905 -1 -2 1 0.00127974 -0.000709288 0.00011769 -0.0010067 -0.000155438 -0.00308415 -11.1572 2.87605 5.89849 0.0001 
301 1 1 0.000608497 0.000374237 0.000711159 -1 0 0 0.000186718 0.000251416 3.83992e-05 0 0 0 -4.92556 4.22915 1.23125 0.0001 
1522 1 1 0.000827449 0.000387446 0.000716178 -2 -3 0 0.00145469 0.000495555 0.000450217 0 0 0 0.706394 -16.5152 -3.01028 0.0001 
295 1 1 0.00015667 0.000485102 0.000708826 3 2 1 -0.000181604 0.000503709 -0.000504715 -0.00830967 -0.00444914 -0.00788186 10.8733 0.699138 0.304924 0.0001 
1665 1 1 0.0010228 0.000477314 0.000654324 -1 -5 -2 0.0011614 -0.000278246 -0.000409083 0 0 0 -14.3595 5.00057 -1.05563 0.0001 
331 1 1 0.00155521 0.00044926 0.000681984 -2 -1 -1 0.00119693 -0.000185536 0.00161431 0 0 0 0.370909 5.62472 -10.907 0.0001 
1171 1 1 0.00121128 0.000657275 0.000637926 -2 0 -1 0.0014186 -0.000416768 0.000582895 0 0 0 2.58277 -16.0036 -12.0168 0.0001 
1629 1 1 0.00143855 0.000757899 0.000678786 -2 0 -1 0.00238042 -0.00016502 -0.000164913 0 0 0 11.4932 -9.0861 20.4474 0.0001 
1286 1 1 9.97697e-05 0.000887114 0.000708853 4 0 -1 0.000573463 0.000443313 -0.000370565 -0.00115621 -0.000939753 0.00133406 0.437928 0.658076 2.28895 0.0001 
1336 1 1 0.000394916 0.000787203 0.000687567 -1 4 -1 0.000143375 -0.000286516 -0.000121851 -0.00613179 -0.000255032 0.00350734 1.44115 -4.62513 -0.713222 0.0001 
846 1 1 0.000553809 0.00089618 0.000643558 -1 -1 0 0.000378469 -0.000111662 -0.00020223 0.00598438 0.00483338 -0.00260242 1.9544 -0.210685 -1.06506 0.0001 
646 1 1 0.000582452 9.67955e-05 0.00082436 0 -1 0 0.000494609 0.000280046 -0.000909658 -0.00597755 0.0184659 0.0153668 -7.23195 1.40129 -4.26202 0.0001 
928 1 1 0.00138934 9.50966e-05 0.000785724 0 -2 -1 0.00056235 0.000175877 6.76648e-05 0.0232695 0.00604665 0.0426272 2.16972 -4.43261 -4.18279 0.0001 
595 1 1 0.000380681 0.000159263 0.000739977 -1 0 -1 0.000559646 0.000449712 -0.000505859 0.00393138 0.00143783 0.00936261 1.00929 -0.635767 2.73777 0.0001 
1518 1 1 0.000102276 0.000313715 0.000809084 2 3 -2 -3.23938e-05 0.000473443 -0.000631981 4.06961e-05 -0.000211093 0.00179683 2.79522 1.39962 1.95835 0.0001 
283 1 1 0.000344048 0.000479389 0.000770441 0 -1 0 -9.62785e-05 0.000530464 -0.000234959 0.0142579 0.00686859 0.0178686 -3.16457 -0.212556 0.104766 0.0001 
719 1 1 0.00117304 0.000495884 0.000797011 5 0 1 0.00141071 0.000141443 -0.000324902 -0.0100479 -0.00400271 -0.00524152 12.036 -3.97505 11.7916 0.0001 
547 1 1 0.000850926 0.000597748 0.000754562 0 -1 0 0.00100503 0.000232772 9.38098e-05 0 0 0 -3.04667 7.02232 6.57343 0.0001 
797 1 1 0.00150782 0.000608617 0.000807993 -2 -2 1 0.00130884 0.00115609 0.00162307 0 0 0 -16.95 4.98008 10.3802 0.0001 
39 1 1 0.000677005 0.000713361 0.000754843 0 0 -1 0.000664243 0.000104622 -0.000974975 0 0 0 0.101578 -5.47396 -4.68615 0.0001 
96 1 1 0.000961939 0.000880876 0.000790563 2 3 2 0.000120304 -0.00036735 -0.000205203 0 0 0 4.34622 -6.73087 -0.638846 0.0001 
831 1 1 0.00157156 0.000878185 0.000776331 3 4 1 0.00118243 0.000114306 0.000909595 0 0 0 -5.89913 0.953147 -4.32347 0.0001 
242 1 1 0.000284271 0.000895277 0.000831777 1 -1 0 4.89418e-05 -0.000251036 -0.00036146 0 0 0 2.02178 -3.37929 2.3779 0.0001 
308 1 1 0.000741579 0.000898391 0.000827657 2 -4 1 0.000894967 0.000320774 6.94404e-05 0 0 0 4.19806 -9.41553 -1.37424 0.0001 
918 1 1 0.000114499 9.68129e-05 0.000895782 1 -1 0 0.000174298 -4.7782e-05 -0.000458919 -0.00851091 -0.0161723 -0.0327123 -2.32456 -7.07479 -2.83432 0.0001 
1388 1 1 0.00164932 0.000107216 0.000893723 3 0 1 0.000602084 -0.000346395 -0.000180377 0 0 0 -17.364 14.3987 -13.6658 0.0001 
1563 1 1 0.000977486 0.000141537 0.000933337 1 1 0 0.000396803 -0.000499991 -0.000351425 -0.0101148 -0.0185594 0.00513963 11.0688 1.54997 1.48141 0.0001 
820 1 1 0.00116 0.000189917 0.000880226 3 0 -2 0.00147052 -2.56212e-05 8.39379e-05 0.0111215 0.0187148 -0.00205549 -4.70713 -6.99343 11.6542 0.0001 
171 1 1 0.000309779 0.000308457 0.000871518 -1 1 1 -0.000274017 0.000161116 -0.000293617 0 0 0 -3.23275 4.05536 -5.58337 0.0001 
1477 1 1 0.00139049 0.000285905 0.0009335 -1 -1 -1 0.0008062 -0.000386991 0.000198581 -0.0205809 0.0172737 0.0301035 -1.5115 6.90052 -12.263 0.0001 
535 1 1 0.00157066 0.000304386 0.000861258 1 -2 1 0.000522607 0.000488478 0.000516364 0.0205809 -0.0172737 -0.0301035 26.2717 3.34829 1.70959 0.0001 
1664 1 1 0.00051971 0.000344308 0.000908062 -3 1 -1 0.000243252 -5.71862e-05 -0.000220864 -0.00672051 -0.008048 -0.00891907 1.93346 -0.356225 -1.5326 0.0001 
267 1 1 0.000949858 0.000382805 0.000924644 0 -1 -1 0.00166922 -2.9786e-05 0.000653829 0 0 0 1.9501 0.821886 6.74807 0.0001 
322 1 1 0.000100131 0.000469425 0.000941231 1 -1 -1 -0.000363257 0.000230684 -0.000122235 0.000422946 -0.000192106 -0.000737869 -3.8317 -5.00747 -6.49394 0.0001 
907 1 1 0.000631328 0.00050687 0.000908864 -1 0 -1 0.000531561 0.000172625 0.000427377 -0.013107 0.0143459 -0.00511044 16.2941 14.8836 -1.85993 0.0001 
1448 1 1 0.00131534 0.000604417 0.000879313 -1 0 0 0.00114866 8.25927e-05 0.00117153 0.0123736 0.00252225 0.00150912 7.37118 -0.362881 3.62446 0.0001 
712 1 1 0.000204012 0.000702475 0.000881877 -1 2 0 -7.22871e-05 -0.000199945 0.000416503 -0.00321845 0.0372674 -0.010327 -15.9656 12.2148 2.51974 0.0001 
1627 1 1 0.000460385 0.000670108 0.000861122 1 -3 0 0.00033761 -0.000493419 -0.000530463 -0.0153173 -0.0140433 -0.0710167 3.40522 -4.69723 -4.63889 0.0001 
1558 1 1 0.000939507 0.000730666 0.000921221 2 1 0 0.000765369 -0.000457644 -0.000188273 0.000403108 0.000939446 -0.000398458 -0.215403 -13.9311 -2.30315 0.0001 
1580 1 1 0.00112476 0.000802989 0.000903915 3 -2 -1 0.00123873 0.000590375 0.000833842 -0.00956842 -0.0214305 0.00558764 -10.5845 -3.33903 9.09861 0.0001 
1631 1 1 0.00130765 0.000875911 0.000896292 1 -1 -3 0.000191275 -0.000191843 0.000776239 0.00916531 0.0204911 -0.00518918 1.2384 4.64704 0.251433 0.0001 
1480 1 1 0.000509778 0.000905485 0.000848452 -1 -3 -2 0.000249829 0.00065624 -0.00113141 -0.0102125 -0.048491 0.0474034 -0.521931 0.845803 -0.0504463 0.0001 
1511 1 1 0.00144886 9.47821e-05 0.000974258 1 -6 0 0.0004362 -0.000876787 0.000176114 0.0379301 0.0460538 0.0323665 2.58998 1.55815 -7.22759 0.0001 
194 1 1 0.000293204 0.000116822 0.0010075 0 2 0 -0.000216283 0.00076845 -0.00109385 0 0 0 -10.4149 -6.30917 1.98656 0.0001 
1378 1 1 0.000715359 0.000137328 0.0010336 1 0 0 0.000753125 0.000278047 -0.000608804 0 0 0 -12.0118 -6.91717 -4.20507 0.0001 
734 1 1 0.000127312 0.000258171 0.00100042 0 1 -1 0.000168544 0.000149978 -0.000734569 -0.00328579 0.0249233 0.0224233 9.44158 -6.40109 -4.38783 0.0001 
1227 1 1 0.000742037 0.00039662 0.00102605 -2 0 1 0.00106667 -0.000157833 0.000487121 0.0198275 -0.00629792 0.0140295 2.26 -11.6393 10.1538 0.0001 
131 1 1 0.0012351 0.000458816 0.000997082 -2 0 1 0.0005795 -0.000483817 -0.000417523 0 0 0 4.28985 -3.59379 -0.934793 0.0001 
1012 1 1 0.00162214 0.000449319 0.0010134 1 -2 -1 0.00107375 0.000205916 0.000833373 -0.00545301 -0.0131717 -0.0382737 8.80016 -4.50336 6.46633 0.0001 
687 1 1 0.000260043 0.000582609 0.00102449 0 -2 0 4.77306e-05 0.000922947 4.23699e-05 0.0161659 -0.0555081 -0.00878013 7.34375 1.1878 -9.17364 0.0001 
1318 1 1 0.000455856 0.000599666 0.00104015 1 -1 -2 -7.81897e-05 6.02822e-05 -0.00123336 -0.0403195 0.0218847 0.0743749 -1.1746 -3.10857 6.01193 0.0001 
1722 1 1 0.00104339 0.000562691 0.000980398 2 3 1 0.00218766 0.000436955 -0.000108744 0 0 0 -16 -6.66144 -16.8162 0.0001 
1026 1 1 0.000629365 0.000701548 0.000955575 2 0 0 0.000575376 -0.000267035 -0.000364848 0.0172424 -0.00179635 0.00652347 2.35988 7.63181 7.59127 0.0001 
1730 1 1 0.0013634 0.000704546 0.00104458 0 0 -2 0.00125932 0.000452346 0.00023366 -0.00232562 0.00148046 0.0037324 -13.9702 -13.2687 -2.25861 0.0001 
142 1 1 0.000105122 0.000812168 0.0010123 2 -2 1 -0.000198173 0.000732849 -0.00113365 0.00814979 -0.012911 -0.0539038 -8.92572 -11.7765 5.02597 0.0001 
1620 1 1 0.000349568 0.000781053 0.0010002 4 1 0 0.000452396 8.52186e-05 -0.000162667 0 0 0 12.3616 12.0704 17.3379 0.0001 
1714 1 1 0.000642231 0.000892305 0.00103342 -1 2 0 1.17345e-05 0.000304628 4.90427e-05 0 0 0 0.987802 -2.7459 -2.10572 0.0001 
140 1 1 0.000974795 0.000902184 0.0010463 -1 0 0 0.000979017 -0.000291937 -5.25323e-06 -0.000950248 -0.00983495 0.00978894 -2.95847 -3.76816 13.6793 0.0001 
605 1 1 0.00110665 0.000111521 0.0011478 1 -1 1 0.00126462 -0.000349919 0.000587624 -0.0593524 -0.0316735 -0.0235957 1.73369 5.12494 -0.663428 0.0001 
1303 1 1 0.00124315 0.000221572 0.00106785 -1 -1 0 0.000378645 -0.000145054 0.000605986 0.0593524 0.0316735 0.0235957 10.038 5.687 1.19212 0.0001 
90 1 1 0.000531884 0.000298175 0.00110307 -1 -1 0 -0.000102912 -0.000234019 -0.00081468 0 0 0 -3.85553 -13.2824 -6.89264 0.0001 
1174 1 1 0.000951535 0.00026744 0.0011389 1 -1 -1 0.00118834 0.00044908 0.000685659 0 0 0 -14.7405 -4.11954 9.96799 0.0001 
958 1 1 0.00158317 0.000242354 0.00106871 0 3 0 0.00136708 -0.00108598 0.000511698 0 0 0 -10.2849 1.05395 7.2587 0.0001 
314 1 1 0.000109368 0.000405297 0.00112991 1 1 1 0.000610242 -0.00021245 -0.000179238 0.00871742 0.0114445 0.0101438 -5.84526 4.64988 -7.62772 0.0001 
449 1 1 0.000338691 0.000402751 0.00106463 -3 0 1 0.000815949 -0.00094444 -0.000149134 0 0 0 -4.63622 25.1322 -1.36008 0.0001 
1760 1 1 0.00140328 0.000338962 0.00115222 0 2 0 0.000612215 -0.000537561 -8.80689e-05 0 0 0 -3.49915 8.35181 -9.31023 0.0001 
532 1 1 0.000589154 0.000502079 0.00114229 1 0 0 -0.000429535 0.000873006 -0.000505246 0.0494837 0.000366542 0.0023863 -10.0082 3.99192 0.222445 0.0001 
1528 1 1 0.000822963 0.000677557 0.00109767 1 0 -2 -2.39618e-05 0.000639543 2.96568e-05 0.00637314 -0.0454503 -0.0295742 13.5209 -3.45332 10.9284 0.0001 
1092 1 1 0.00123092 0.000850962 0.00110553 -1 2 0 0.000977906 0.000587625 -0.00030716 -0.00791012 -0.0123938 -0.0120792 -12.2429 0.490914 11.1829 0.0001 
413 1 1 9.65459e-05 0.000112035 0.00116363 -1 -1 0 0.000573229 0.000506629 0.000249836 0.0192605 -0.0192333 -0.00102322 2.16998 -0.678261 2.93855 0.0001 
72 1 1 0.000461001 0.000112408 0.00119717 4 0 0 -0.00091955 -0.00169106 -0.00079635 0 0 0 11.0819 13.1874 5.274 0.0001 
1205 1 1 0.00089335 0.000482186 0.00118801 2 1 -1 0.000621327 -0.000459882 0.000522552 0 0 0 9.9899 -13.8094 1.17827 0.0001 
1552 1 1 0.0011015 0.000530555 0.00117219 -3 1 1 0.00026062 0.000927917 -0.00048672 -0.00794854 -0.0119841 -0.00154538 13.7244 -8.63981 -3.94276 0.0001 
484 1 1 0.000142947 0.000603472 0.00118298 2 -1 0 0.000157168 0.000765431 -0.000900547 -0.0125298 0.00469543 0.000604037 -7.32275 -13.9825 4.92678 0.0001 
1213 1 1 0.00128285 0.000570029 0.00123922 2 0 1 0.00022663 -0.000318648 0.000832654 0.00794854 0.0119841 0.00154538 13.0456 3.12114 11.4507 0.0001 
770 1 1 0.00029911 0.000760876 0.00120212 1 -5 -1 -0.000421436 -0.000750368 -0.000573228 -0.00215957 0.039484 -0.0213356 -0.614675 -5.70577 1.36948 0.0001 
767 1 1 0.000519534 0.000690929 0.00121205 -2 -2 -1 -0.000396555 2.86399e-05 -0.000333784 0 0 0 7.45716 -21.3756 -5.52084 0.0001 
147 1 1 0.000968815 0.00074293 0.00122539 -3 -2 -2 0.000977476 0.000373461 -0.00111655 0 0 0 -9.24147 -11.1007 -0.158826 0.0001 
307 1 1 0.00164809 0.000684083 0.00119773 2 -3 2 0.00201657 -0.000615466 0.000357351 0 0 0 4.13683 -7.31705 3.9061 0.0001 
1001 1 1 9.57952e-05 0.000803086 0.00120318 0 2 3 -0.000396804 0.000385594 -0.000465171 0.00971927 0.00112544 0.080913 10.5522 3.7855 -0.833056 0.0001 
407 1 1 0.00135214 0.000842487 0.00126014 -2 1 -1 0.000784677 0.00122278 0.000380142 0.00791012 0.0123938 0.0120792 -1.39493 -6.88904 -9.37576 0.0001 
1740 1 1 0.00155559 0.000874151 0.00117338 2 -5 -1 0.000363298 0.000247617 -8.64625e-06 0 0 0 6.07573 16.286 14.6697 0.0001 
341 1 1 0.000467046 0.000900372 0.00120329 0 5 2 0.000227026 -0.000352357 -0.000328158 -0.000390577 4.90707e-06 -8.96396e-05 3.99033 -5.78111 0.811436 0.0001 
708 1 1 0.00081193 0.000895178 0.00116351 3 -6 0 -3.77973e-05 -0.000156405 -0.000401414 0 0 0 -7.79213 -5.61509 1.58966 0.0001 
796 1 1 0.000259548 0.00019894 0.00127241 -1 3 1 -5.6741e-08 0.000114483 -0.000104814 0 0 0 -4.40973 4.91677 6.1134 0.0001 
1135 1 1 0.00126765 0.000154164 0.00133392 2 0 0 0.000411918 0.000928961 0.000738059 -0.000348802 -0.000205448 -0.00050646 5.22436 1.74795 -7.70277 0.0001 
671 1 1 0.00157447 0.000123362 0.00129322 2 4 0 0.000281727 0.00105459 0.000433643 -0.0735957 0.0327237 -0.0251008 4.24861 0.850107 -8.27717 0.0001 
373 1 1 0.000955561 0.000319398 0.00133333 -3 4 -1 0.000893298 0.000611102 -0.000282145 0 0 0 -6.87457 1.15526 13.7808 0.0001 
1725 1 1 0.00143089 0.000266057 0.00135641 3 -1 0 0.00135617 0.000619379 0.000893125 -0.0592452 -0.0124955 -0.103984 -11.6418 -9.8146 4.93654 0.0001 
710 1 1 0.000221669 0.000395009 0.00130013 0 2 0 -8.7136e-05 0.000563976 -0.000310632 -0.00876905 -0.0177099 -0.00616239 2.58601 3.05759 -5.90101 0.0001 
698 1 1 0.00158206 0.000531259 0.00132529 -3 -5 -3 5.92791e-05 0.00018467 0.000785452 -0.0221587 0.0185164 0.0195244 6.63819 -6.42268 1.43762 0.0001 
933 1 1 0.000317261 0.000602053 0.00131023 -1 4 0 0.000283597 -0.000494295 0.000156012 0.00502648 -0.0393145 0.0174419 6.97547 2.61297 4.47932 0.0001 
1444 1 1 0.00142983 0.000652294 0.00136052 2 -2 1 0.000876233 -0.000402578 0.000827136 -0.0124849 0.00218299 0.00388014 3.82236 3.22035 -0.374751 0.0001 
1523 1 1 0.000774614 0.000715976 0.00128145 -2 2 2 0.000427603 -6.17501e-05 -0.000121103 -0.00637314 0.0454503 0.0295742 -15.5415 14.1996 19.8631 0.0001 
1496 1 1 0.000207891 0.000887502 0.00134323 2 -4 2 -0.000165745 0.000695729 0.000283486 0.0027645 -0.00170423 0.0038773 7.86396 0.450297 -1.94906 0.0001 
999 1 1 0.000638835 0.000869439 0.00130021 -2 4 0 0.000455217 -0.000398229 0.000122335 -0.000146572 0.000274941 -0.000168218 10.3833 1.40088 12.934 0.0001 
888 1 1 0.000380907 0.000102531 0.00144102 2 0 -3 -0.000351286 -0.000530421 -0.000760303 0 0 0 3.73864 -11.9702 2.57708 0.0001 
290 1 1 0.000728195 0.000111661 0.00145454 -3 -4 0 2.04234e-05 -1.30473e-05 0.000270772 0.0148827 -0.0405518 0.000729127 1.70351 6.83189 0.911547 0.0001 
815 1 1 0.00104929 0.000126653 0.00142866 -1 2 -3 0.00141725 0.000194669 0.00042406 0 0 0 2.53237 6.62899 -15.8107 0.0001 
1218 1 1 0.000118078 0.000300901 0.00145403 -2 -3 0 0.000441917 -0.000445654 -0.000595379 -0.0352846 0.00352809 -0.001791 4.79169 5.69688 -2.76731 0.0001 
456 1 1 0.000380132 0.000320399 0.00139733 2 2 2 0.000103698 -0.000601448 -0.000712426 0 0 0 11.9693 0.0840332 -0.93485 0.0001 
1368 1 1 0.000758828 0.000295527 0.00140182 3 1 1 0.000370268 0.000408917 -0.000459673 -0.0223226 0.0383854 -0.00377993 -5.1622 0.4977 -2.04765 0.0001 
1666 1 1 0.000553173 0.000395004 0.00147079 -1 2 1 5.97597e-05 -0.000550727 -0.000378768 0 0 0 -3.54867 0.843606 -0.513646 0.0001 
665 1 1 0.00124022 0.000333776 0.0014586 3 -1 1 -0.000510366 0.000166694 6.0828e-05 0.0128861 -0.0173865 -0.000221767 -7.87 -4.57867 -2.89053 0.0001 
175 1 1 0.000217786 0.000502275 0.00146533 0 -2 -2 -0.000472119 -0.000239173 -0.00054049 0.00876905 0.0177099 0.00616239 -14.2863 1.29738 -5.0895 0.0001 
630 1 1 0.000855838 0.000467093 0.00142692 -2 6 -2 -0.000697599 0.000106454 -0.00127906 0.00438758 -0.0111699 -0.0147138 0.404864 -2.17168 0.043282 0.0001 
349 1 1 0.00104897 0.000536143 0.00140339 -3 1 0 -0.000205984 0.000547673 -0.00194575 -0.00548427 -0.00557832 0.00614746 3.03657 0.496414 -11.2866 0.0001 