ITEM: TIMESTEP
0
ITEM: NUMBER OF ATOMS
2088
ITEM: BOX BOUNDS pp pp pp
0 5
0 0.5
0 1
ITEM: ATOMS id type type x y z ix iy iz vx vy vz fx fy fz omegax omegay omegaz radius 
1471 1 1 0.0498882 0.0676721 0.0498842 0 0 0 -0.140685 -0.105694 -0.000117092 -74.6133 -2.47509 -28.3722 2.00259 -2.31227 1.79436 0.05 
658 1 1 0.277531 0.0499922 0.0501685 0 0 0 -0.421477 0.00438013 -0.217887 -3.57319 -3.01155 -82.1488 -5.38158 0.134499 -34.7544 0.05 
141 1 1 0.377868 0.0496489 0.0497674 0 0 0 -1.04232 -0.106448 -0.0268155 -75.8957 -105.583 -30.6357 -3.55977 2.01688 -16.7227 0.05 
1687 1 1 0.721491 0.0497351 0.0501354 0 0 0 -0.680097 0.204143 0.0522682 -43.7446 78.8802 -11.2684 4.2199 -4.74717 -15.6433 0.05 
596 1 1 0.108382 0.14897 0.0497983 0 0 0 -0.331271 0.227408 -0.0978306 16.3654 20.394 3.95032 -7.92131 -3.01147 -3.12123 0.05 
1539 1 1 0.203877 0.119138 0.0516399 0 0 0 -0.0531188 0.49139 0.0360984 0 0 0 -3.37112 5.06123 7.95071 0.05 
1321 1 1 0.479693 0.0562787 0.0538289 0 0 0 -0.430741 -0.485922 0.151759 0 0 0 -2.50762 -7.21901 7.15999 0.05 
589 1 1 0.0503792 0.231165 0.0514402 0 0 0 -0.154583 0.468011 0.110831 0 0 0 -4.50651 2.81462 1.84709 0.05 
364 1 1 0.29496 0.160842 0.0510286 0 0 0 0.0240895 0.48479 -0.0831432 -40.6442 25.6068 -3.00915 1.84936 -4.70993 -11.8686 0.05 
1027 1 1 0.393131 0.146956 0.0621095 0 0 0 0.16076 0.315175 -0.0394652 91.5456 202.494 94.8813 1.6576 5.55463 -1.29668 0.05 
1247 1 1 0.662612 0.131834 0.0501712 0 0 0 -0.518573 0.66279 0.0671709 0 0 0 6.30318 -2.87815 4.92203 0.05 
883 1 1 0.171092 0.226492 0.0625762 0 0 0 0.0376764 -0.0734557 0.139354 0 0 0 1.5765 0.793367 3.06636 0.05 
1475 1 1 0.269151 0.265302 0.0520628 0 0 0 -0.0671811 0.375881 -0.197222 0 0 0 1.95082 -3.41639 -0.152866 0.05 
659 1 1 0.493667 0.159375 0.0524802 0 0 0 0.0307115 0.108921 0.041559 0 0 0 0.113712 -7.79945 -6.30279 0.05 
1183 1 1 0.148907 0.348746 0.0504453 0 0 0 -0.0396564 0.180181 -0.27863 0 0 0 -2.10359 -5.52315 4.27199 0.05 
70 1 1 0.434372 0.244695 0.0498892 0 0 0 0.0757497 -0.41269 -0.152806 -16.1463 24.287 -7.99128 -4.026 0.679162 -28.7615 0.05 
885 1 1 0.538759 0.24991 0.051439 0 0 0 0.449586 -0.246059 0.0242589 0 0 0 -0.0791354 6.39231 5.36308 0.05 
442 1 1 0.740375 0.212737 0.0526551 0 0 0 -0.313165 0.239753 -0.0635537 -126.989 219.417 -85.6647 7.79927 2.07944 4.70854 0.05 
295 1 1 0.0517834 0.422662 0.0526015 0 0 0 0.0955349 0.341219 0.0637415 0 0 0 -4.82604 -0.82927 7.15542 0.05 
1177 1 1 0.337334 0.347569 0.0596085 0 0 0 0.425703 -0.00801527 -0.349089 0 0 0 -6.58259 2.88172 -5.43343 0.05 
884 1 1 0.441828 0.346737 0.053909 0 0 0 0.274565 -0.35628 0.153614 0 0 0 -1.0721 -0.616781 29.7369 0.05 
1181 1 1 0.180169 0.449904 0.053301 0 0 0 0.664885 -0.176983 0.208739 0 0 0 -3.85426 10.4377 -24.7166 0.05 
590 1 1 0.428536 0.450251 0.0534901 0 0 0 0.197806 1.0481 0.00149104 38.7306 -86.0789 -0.620775 1.06746 -1.61355 -27.8202 0.05 
1472 1 1 0.529146 0.428525 0.0511946 0 0 0 1.6565 -0.112204 0.0749273 0 0 0 -11.0156 3.98825 32.9267 0.05 
3 1 1 0.810815 0.357937 0.0529419 0 0 0 -0.150401 0.504359 0.00222965 0 0 0 5.5025 -0.533796 -7.26873 0.05 
1 1 1 0.288178 0.433117 0.0818156 0 0 0 0.49074 -0.14169 0.0776002 0 0 0 -2.57076 -3.57149 1.63906 0.05 
248 1 1 0.769667 0.0926784 0.394686 0 0 0 -0.719581 0.149399 -0.0744223 8.389 5.19469 -41.5301 -1.15519 -4.76683 2.40223 0.05 
1482 1 1 0.700658 0.43827 0.0628235 0 0 0 1.2031 0.257325 -0.458718 0 0 0 -11.9307 7.64046 -66.8905 0.05 
146 1 1 0.59322 0.0537919 0.0849896 0 0 0 -0.910231 0.236635 -0.479444 0 0 0 -2.30844 -4.25845 -22.952 0.05 
1481 1 1 0.0509343 0.324577 0.0877043 0 0 0 -0.162865 0.451389 -0.00435486 0 0 0 1.27987 1.11134 -2.4309 0.05 
303 1 1 0.64378 0.240581 0.0508343 0 0 0 -0.431149 0.0747444 0.175504 0 0 0 2.7062 -2.2377 -1.8851 0.05 
1483 1 1 0.597811 0.344227 0.0595998 0 0 0 -0.0981338 0.593802 0.169637 0 0 0 6.1516 1.40993 3.87902 0.05 
1185 1 1 0.711487 0.319496 0.0521411 0 0 0 -0.0410661 0.0296016 0.108516 0 0 0 0.0661529 -0.453451 2.44377 0.05 
223 1 1 0.663323 0.0980512 0.304071 0 0 0 -0.378958 -0.145208 0.0380183 81.1631 -5.49207 35.5689 4.95713 -0.24439 -14.3304 0.05 
8 1 1 0.0497179 0.105066 0.143012 0 0 0 -0.283619 0.0721031 0.16953 37.1274 41.8152 -22.9211 6.16139 4.21664 8.30666 0.05 
1246 1 1 0.127211 0.0513455 0.110476 0 0 0 -0.194854 -0.0778793 0.0769561 68.8822 30.6023 32.8061 -8.39644 -2.5691 -5.06281 0.05 
1617 1 1 0.223211 0.062334 0.134853 0 0 0 -0.201079 0.0130487 0.210523 -36.9329 -43.4773 53.7201 20.3855 2.71729 -12.632 0.05 
369 1 1 0.32213 0.0519465 0.139272 0 0 0 -0.143635 -0.132086 0.0614763 18.711 36.976 19.9139 -4.30751 5.14212 14.2142 0.05 
1316 1 1 0.42168 0.0502339 0.141 0 0 0 -0.614379 -0.018906 0.0708815 80.1672 -67.699 23.5361 -13.201 -7.75809 -17.395 0.05 
1615 1 1 0.43769 0.14944 0.156441 0 0 0 0.158022 0.226662 0.0529468 0 0 0 7.16666 -5.69277 32.4001 0.05 
1700 1 1 0.518019 0.0705675 0.157214 0 0 0 -0.191222 -0.482526 0.134178 -32.8271 -17.2724 -27.2034 -4.28119 4.6181 4.58398 0.05 
952 1 1 0.126317 0.17668 0.143945 0 0 0 -0.400583 0.614993 -0.109438 7.01022 -3.08527 -23.5173 -0.132601 0.894485 2.74573 0.05 
379 1 1 0.229363 0.183857 0.131874 0 0 0 -0.150608 0.337408 -0.0916811 10.6041 -6.55277 -5.76072 -2.398 0.930896 1.80671 0.05 
743 1 1 0.326801 0.15111 0.149774 0 0 0 -0.256531 0.0968887 -0.0207829 5.9406 -36.3533 -79.9784 2.88096 5.76984 -10.5523 0.05 
1323 1 1 0.733482 0.146215 0.127088 0 0 0 -0.355226 0.172811 0.0672002 -79.2951 3.86221 -41.0915 1.72126 -0.615511 -1.2906 0.05 
75 1 1 0.466903 0.245492 0.144237 0 0 0 0.366426 -0.106187 -0.0805939 15.4269 -14.1864 30.4939 -10.8799 5.18682 -7.35833 0.05 
1633 1 1 0.536945 0.172249 0.142964 0 0 0 0.328938 -0.100042 -0.139227 0 0 0 -3.23126 10.5485 4.26703 0.05 
736 1 1 0.639169 0.178885 0.135402 0 0 0 -0.116908 0.0520208 -0.0575467 0 0 0 -4.33299 4.85622 -3.15484 0.05 
306 1 1 0.13372 0.309167 0.143134 0 0 0 -0.0359923 0.152435 0.27869 0 0 0 -3.77668 -3.55327 -2.87684 0.05 
1477 1 1 0.238931 0.292438 0.143832 0 0 0 -0.150804 0.119334 -0.191514 0 0 0 -5.23269 3.54359 -1.12838 0.05 
307 1 1 0.348102 0.241782 0.111567 0 0 0 0.333577 -0.37275 -0.692568 0 0 0 -9.99349 3.57997 -10.2532 0.05 
316 1 1 0.58957 0.265967 0.137088 0 0 0 -0.0971056 0.0830256 -0.291679 0 0 0 2.34067 -0.315899 3.90769 0.05 
601 1 1 0.703378 0.259777 0.132368 0 0 0 -0.235422 -0.0395834 0.0274764 -29.5182 13.3701 70.2547 -6.52961 -0.768225 -1.20856 0.05 
889 1 1 0.185311 0.395942 0.137873 0 0 0 0.465385 -0.164097 -0.358164 0 0 0 -0.0579697 -3.75579 7.43404 0.05 
663 1 1 0.5128 0.337157 0.128093 0 0 0 -0.0948273 0.426462 -0.16896 0 0 0 4.34737 -6.7664 -6.86525 0.05 
2 1 1 0.649544 0.350948 0.165069 0 0 0 0.601335 -0.327891 0.386332 0 0 0 9.37385 21.937 -11.741 0.05 
891 1 1 0.829932 0.33307 0.152477 0 0 0 0.277422 0.335387 -0.0601408 0 0 0 10.1749 6.84987 -6.39116 0.05 
1195 1 1 0.0788412 0.448227 0.147071 0 0 0 0.691066 -0.296953 -0.307453 77.5335 88.0946 -41.8105 1.45152 3.04013 -39.433 0.05 
890 1 1 0.494094 0.450077 0.156739 0 0 0 0.835706 0.379455 0.457628 7.26701 -16.2431 -0.785833 -2.57248 6.16254 -22.4354 0.05 
1478 1 1 0.599449 0.449048 0.139735 0 0 0 0.924825 0.0602656 -0.122875 0 0 0 -4.12221 -7.87128 -9.54934 0.05 
1486 1 1 0.370577 0.448692 0.14576 0 0 0 0.971012 -0.220075 -0.119139 0 0 0 4.5255 5.6246 -37.0534 0.05 
1083 1 1 0.830067 0.157595 0.94887 0 0 0 -0.235428 -0.237148 -0.0569006 0 0 0 1.13885 -1.5277 7.44202 0.05 
521 1 1 0.612046 0.081392 0.188471 0 0 0 -0.415607 0.552553 -0.243936 64.2321 40.4717 33.2762 -10.7285 0.13144 13.5965 0.05 
1489 1 1 0.0515225 0.239167 0.176422 0 0 0 -0.0220806 0.199391 -0.133677 0 0 0 -8.26239 -4.19683 9.52809 0.05 
85 1 1 0.181722 0.234806 0.203397 0 0 0 -0.0251531 0.152006 -0.0359774 2.08414 10.6558 8.9417 4.8212 -6.01528 -0.688805 0.05 
1335 1 1 0.275136 0.19809 0.220857 0 0 0 0.353706 0.0703239 -0.496381 -136.783 121.026 90.902 -12.7722 9.2435 -0.103983 0.05 
300 1 1 0.801222 0.2325 0.131336 0 0 0 -0.0446841 0.0442163 -0.138507 0 0 0 -0.315212 -2.78284 1.01879 0.05 
1192 1 1 0.0536243 0.365161 0.195836 0 0 0 0.392438 0.058772 0.0429732 -77.5335 -88.0946 41.8105 -3.15364 -0.754537 7.23803 0.05 
600 1 1 0.530004 0.254657 0.221721 0 0 0 0.0819699 0.307924 0.248606 10.1805 -10.6363 -4.78514 -3.98079 -6.07584 5.72201 0.05 
13 1 1 0.39062 0.344043 0.153698 0 0 0 0.608627 0.0684107 0.0311694 0 0 0 -0.523457 -4.73889 3.91422 0.05 
12 1 1 0.27017 0.378296 0.191609 0 0 0 0.279549 0.283657 -0.37252 0 0 0 3.97816 0.492751 -8.51232 0.05 
14 1 1 0.742962 0.382346 0.135699 0 0 0 0.484391 -0.412572 0.342486 0 0 0 -9.33785 2.73858 15.9631 0.05 
20 1 1 0.42136 0.445917 0.242327 0 0 0 1.61445 0.278881 -0.28939 0 0 0 -1.06642 21.313 -56.1439 0.05 
902 1 1 0.586734 0.417131 0.280658 0 0 0 -0.121842 0.189287 0.100736 -26.7972 14.0033 -5.50912 17.2494 -5.62417 0.03305 0.05 
322 1 1 0.771551 0.447363 0.23416 0 0 0 0.683607 -0.354319 0.473664 0 0 0 7.71783 -7.22813 -31.1724 0.05 
949 1 1 0.516009 0.333983 0.950356 0 0 0 0.342274 0.101019 0.0646659 35.9671 -14.7735 16.4253 1.48116 -7.75506 -1.58041 0.05 
1563 1 1 0.112867 0.121775 0.22609 0 0 0 0.0907619 0.506769 -0.06585 26.6538 -4.38571 33.1807 1.61305 6.35479 3.73014 0.05 
1546 1 1 0.182319 0.0500037 0.225533 0 0 0 -0.312818 -0.0671243 0.153957 28.8023 -34.6405 -44.3198 6.88741 -3.13465 -33.8247 0.05 
458 1 1 0.276158 0.0882257 0.225579 0 0 0 -0.292651 -0.151435 0.0652811 0 0 0 -10.411 12.8735 0.68629 0.05 
446 1 1 0.375127 0.0740138 0.229541 0 0 0 -0.0380047 0.109517 -0.0232279 0 0 0 19.016 -11.8843 6.03819 0.05 
799 1 1 0.472916 0.057001 0.246367 0 0 0 -0.399197 -0.110079 -0.227988 0 0 0 2.12993 5.1148 0.452617 0.05 
525 1 1 0.566936 0.0952614 0.278946 0 0 0 -0.67425 0.0249354 -0.222067 -80.6881 26.0435 -11.6401 -3.97441 -3.20317 10.3232 0.05 
958 1 1 0.0498312 0.175446 0.281725 0 0 0 0.0732192 0.168011 0.0628458 4.22073 -16.2954 22.4809 -0.641298 -1.11729 4.40843 0.05 
669 1 1 0.20288 0.144058 0.265049 0 0 0 -0.274027 0.269251 0.439405 26.3734 -40.9413 -43.7974 -3.84469 4.80614 -13.4055 0.05 
454 1 1 0.370171 0.178014 0.242602 0 0 0 0.305648 0.000516159 -0.233778 93.2978 -86.6827 -4.42154 -9.41908 -12.0196 -3.49162 0.05 
148 1 1 0.471341 0.172043 0.24812 0 0 0 -0.084232 0.144477 -0.217843 0 0 0 6.46085 7.94275 -4.33068 0.05 
86 1 1 0.594654 0.175333 0.225634 0 0 0 -0.338519 0.185317 0.407758 0 0 0 7.58628 2.2448 -10.6592 0.05 
77 1 1 0.696843 0.150475 0.220912 0 0 0 -0.510928 -0.0130191 -0.161186 0 0 0 1.66016 -2.52892 -1.03421 0.05 
971 1 1 0.118964 0.300831 0.244398 0 0 0 -0.103611 0.467461 0.12229 80.4064 21.8734 -28.1336 2.85076 -2.18683 -1.20808 0.05 
1265 1 1 0.24368 0.283809 0.266528 0 0 0 0.155139 -0.0300161 -0.31044 -1.50667 1.95656 1.02658 3.98366 17.8319 -6.19256 0.05 
1252 1 1 0.32327 0.286518 0.204214 0 0 0 0.100238 -0.17132 -0.661603 0 0 0 6.56644 -2.38282 3.32497 0.05 
375 1 1 0.418336 0.264437 0.229701 0 0 0 0.221918 0.184594 -0.0395765 29.7974 29.654 -11.4909 7.4996 -3.40941 4.74439 0.05 
315 1 1 0.647688 0.261426 0.219998 0 0 0 0.0140272 0.150589 0.136084 0 0 0 -1.57255 -3.15774 -0.939874 0.05 
963 1 1 0.760853 0.239567 0.223233 0 0 0 -0.0169 -0.0272931 0.0131646 0 0 0 8.22554 -0.573238 -5.67331 0.05 
620 1 1 0.172592 0.385768 0.248105 0 0 0 0.599394 -0.221355 0.144863 0 0 0 -4.85696 -5.52185 7.80467 0.05 
9 1 1 0.659802 0.35106 0.264857 0 0 0 1.2816 -0.949651 -0.385081 26.7972 -14.0033 5.50912 -0.642262 1.72855 -3.58336 0.05 
24 1 1 0.0860513 0.447799 0.248671 0 0 0 0.17271 0.0864229 0.022447 0 0 0 1.56956 -0.57612 -25.984 0.05 
1490 1 1 0.306025 0.368078 0.284605 0 0 0 -0.0229314 0.247823 0.092805 0 0 0 -5.0089 -12.15 -1.25381 0.05 
17 1 1 0.487532 0.345007 0.225265 0 0 0 -0.264707 -0.0222093 -0.319249 14.8833 4.32751 -4.7797 -2.81032 3.62156 7.83252 0.05 
613 1 1 0.766978 0.343248 0.23242 0 0 0 0.347918 -0.0825788 -0.301613 0 0 0 -0.787659 -0.709251 2.45924 0.05 
1745 1 1 0.722108 0.0540556 0.774643 0 0 0 -0.379381 0.392106 0.0662077 0 0 0 -0.254026 -3.0966 0.804883 0.05 
607 1 1 0.668362 0.447745 0.225913 0 0 0 0.557144 0.138838 -0.262424 0 0 0 2.47495 5.80618 17.4178 0.05 
1074 1 1 0.795656 0.251863 0.743391 0 0 0 0.525026 0.0712923 0.151047 124.984 -51.4517 -28.4811 1.3375 -3.76165 9.2103 0.05 
967 1 1 0.119811 0.0507816 0.303281 0 0 0 -0.661893 -0.134314 0.0992029 -21.4456 18.6261 39.545 16.9967 2.58766 -15.3887 0.05 
155 1 1 0.219755 0.0639034 0.323229 0 0 0 -0.270782 0.0333628 -0.214999 0 0 0 -0.190184 0.445019 27.9836 0.05 
756 1 1 0.480938 0.115989 0.331068 0 0 0 -0.398457 -0.25407 -0.0195947 0 0 0 -6.46926 -5.42888 -8.17582 0.05 
94 1 1 0.13704 0.173419 0.333961 0 0 0 -0.233427 -0.418967 0.227475 -27.1138 39.7725 43.76 -4.09252 3.82685 5.5827 0.05 
1046 1 1 0.297073 0.149026 0.305979 0 0 0 0.0648742 -0.0859013 0.0082107 0.0575508 -0.0777589 -0.10617 -1.45994 4.23279 8.59745 0.05 
752 1 1 0.405158 0.190813 0.339057 0 0 0 -0.307845 -0.235071 0.240585 0 0 0 2.80903 -0.849324 0.315168 0.05 
318 1 1 0.0498505 0.271297 0.309802 0 0 0 0.127353 0.197438 0.105447 -67.9254 -5.65424 22.4011 -1.25239 -2.07194 5.62904 0.05 
957 1 1 0.329343 0.250019 0.306222 0 0 0 0.727807 -0.186702 -0.182393 0 0 0 -7.46085 -8.7072 -0.119525 0.05 
1257 1 1 0.551474 0.191318 0.314849 0 0 0 0.120614 0.100523 0.0630651 -84.7768 28.9178 -73.1406 0.355672 -5.76871 8.88497 0.05 
674 1 1 0.650374 0.201755 0.30688 0 0 0 0.0128257 -0.0236735 -0.046989 45.0426 18.0516 11.9882 3.5491 3.64823 -7.03984 0.05 
983 1 1 0.151146 0.272335 0.337232 0 0 0 -0.280514 -0.256466 -0.0118668 0.740389 1.1688 0.0373484 0.0290953 -0.616373 -11.283 0.05 
1260 1 1 0.233321 0.214171 0.347048 0 0 0 -0.177265 0.0279949 0.168936 -0.0575508 0.0777589 0.10617 1.40027 2.25346 -5.35853 0.05 
380 1 1 0.475921 0.257618 0.311176 0 0 0 -0.0485687 -0.0708445 0.204414 0 0 0 1.68632 -0.171337 -6.23693 0.05 
693 1 1 0.050561 0.375519 0.31103 0 0 0 0.338545 0.455875 -0.148964 0 0 0 1.37567 4.11093 9.17542 0.05 
685 1 1 0.216159 0.351357 0.3349 0 0 0 -0.108623 0.363769 0.369295 -1.44056 -50.4479 -41.1486 -2.23251 2.64865 20.0803 0.05 
1494 1 1 0.413716 0.347636 0.29245 0 0 0 0.44647 -0.0681562 0.161374 -25.0638 6.30879 9.56485 -5.28569 -2.34955 -11.6222 0.05 
1269 1 1 0.722797 0.283689 0.308075 0 0 0 0.0194126 -0.10691 0.319098 0 0 0 -7.80395 -5.37458 1.22689 0.05 
1559 1 1 0.507651 0.347408 0.34388 0 0 0 0.19446 -0.190618 0.0716965 0 0 0 -1.77644 14.7319 15.8289 0.05 
533 1 1 0.830882 0.199136 0.440743 0 0 0 -0.207204 0.019739 0.0395565 -16.1367 -57.1668 -16.9634 1.27583 -2.76189 -0.331042 0.05 
616 1 1 0.404371 0.446747 0.362197 0 0 0 1.22327 0.480159 0.142201 0 0 0 1.7532 5.89238 -35.3305 0.05 
21 1 1 0.737055 0.447725 0.349635 0 0 0 1.27505 -0.110649 0.299118 0 0 0 6.75938 -4.3173 -11.8624 0.05 
1261 1 1 0.318957 0.0507277 0.311423 0 0 0 -0.595226 0.145742 -0.252397 0 0 0 -9.50617 13.6537 -31.0874 0.05 
1117 1 1 0.491157 0.0497704 0.415854 0 0 0 -0.902065 0.0610206 0.589965 14.681 35.7143 34.1366 -4.55877 -3.97419 -19.6454 0.05 
231 1 1 0.591511 0.0498172 0.364782 0 0 0 -1.14181 -0.043355 0.0261775 -20.0173 44.4505 -2.32221 -3.64734 1.41167 -47.2653 0.05 
975 1 1 0.050581 0.19455 0.380003 0 0 0 -0.066305 0.343512 0.17952 0 0 0 -1.78061 2.44711 1.24361 0.05 
1331 1 1 0.303954 0.0536013 0.411555 0 0 0 0.201637 0.208172 -0.366931 0 0 0 7.839 0.799077 -9.38884 0.05 
168 1 1 0.123331 0.156142 0.439784 0 0 0 -0.912814 0.174558 0.654677 45.9143 -163.567 -44.931 6.81455 -8.55778 8.74704 0.05 
164 1 1 0.217495 0.12298 0.407342 0 0 0 -0.364966 -0.0974856 -0.0908634 0 0 0 -4.76619 9.54963 0.148205 0.05 
972 1 1 0.331696 0.163665 0.401456 0 0 0 -0.407897 0.134194 0.176007 0 0 0 -4.42536 -3.62752 -6.62363 0.05 
914 1 1 0.0520505 0.306187 0.412455 0 0 0 0.212054 0.0880962 -0.0447842 0 0 0 -3.74415 -9.93374 6.20798 0.05 
320 1 1 0.82048 0.256153 0.324286 0 0 0 -0.168652 0.153893 -0.104137 0 0 0 7.20031 4.39941 -5.39295 0.05 
1554 1 1 0.29713 0.369683 0.3912 0 0 0 0.111543 0.394284 0.000681722 0 0 0 10.0254 0.594388 0.878678 0.05 
326 1 1 0.204838 0.450125 0.343056 0 0 0 1.8481 -0.138163 -0.123198 13.4414 33.5119 22.6203 1.49433 -3.11462 -65.0717 0.05 
1498 1 1 0.481982 0.446125 0.437308 0 0 0 1.47985 -0.340154 0.200436 0 0 0 1.04707 1.54707 -57.7078 0.05 
605 1 1 0.60535 0.323718 0.368495 0 0 0 -0.742772 -0.0497197 -0.328171 0 0 0 -10.6337 -2.84307 7.90727 0.05 
678 1 1 0.795146 0.358136 0.329347 0 0 0 0.213049 0.247009 0.0892831 57.3513 52.33 -72.4184 -1.16891 -4.85867 4.95687 0.05 
26 1 1 0.504656 0.448902 0.330186 0 0 0 1.03294 0.268938 0.1995 0 0 0 8.52481 -14.1266 -36.102 0.05 
90 1 1 0.0497044 0.0945872 0.361694 0 0 0 0.131247 0.338632 0.0373365 88.5135 -39.7339 2.78121 -8.06676 -1.12437 2.31078 0.05 
449 1 1 0.140992 0.0530584 0.403734 0 0 0 0.338377 0.369184 -0.425445 0 0 0 12.5607 17.0284 -59.3688 0.05 
740 1 1 0.384869 0.15376 0.488625 0 0 0 -0.470801 -0.0117256 0.270643 0 0 0 2.99281 -1.76364 16.516 0.05 
542 1 1 0.406023 0.0552011 0.364218 0 0 0 -0.614308 -0.0817372 -0.33213 -41.2535 25.2665 -40.9872 -18.1597 -16.0561 7.95735 0.05 
1121 1 1 0.686262 0.0500583 0.446806 0 0 0 -0.740142 -0.00602993 -0.288238 25.7674 -3.40977 6.17813 -0.989072 4.01364 -16.3923 0.05 
462 1 1 0.285708 0.134056 0.490167 0 0 0 -0.102845 0.176544 -0.469667 0 0 0 -0.856118 2.22245 -1.92875 0.05 
1050 1 1 0.672988 0.14092 0.401245 0 0 0 -0.140087 0.196743 -0.0567993 0 0 0 5.45092 8.51642 -0.607273 0.05 
98 1 1 0.743713 0.192575 0.352525 0 0 0 -0.21167 0.405061 0.093141 0 0 0 -2.88116 -7.52419 -4.54391 0.05 
612 1 1 0.135607 0.254361 0.449506 0 0 0 0.149529 -0.0693223 -0.0159998 -45.9143 163.567 44.931 -13.6149 3.41056 -15.32 0.05 
682 1 1 0.460047 0.163753 0.422684 0 0 0 -0.258095 -0.142169 -0.188809 -0.239023 0.18695 -0.108899 -10.6682 5.15313 -13.1185 0.05 
1641 1 1 0.572925 0.144358 0.400079 0 0 0 -0.0660391 0.189036 0.250488 62.4419 -45.7764 13.1733 -2.98934 -6.5987 -3.26866 0.05 
327 1 1 0.219554 0.306882 0.424257 0 0 0 -0.00486817 0.533354 0.548322 -7.43366 -8.11058 16.2296 -4.2892 -7.0284 -10.0514 0.05 
102 1 1 0.233332 0.211499 0.454464 0 0 0 -0.127355 0.143489 0.351 0 0 0 6.36175 -3.92639 6.84713 0.05 
673 1 1 0.320196 0.266007 0.408755 0 0 0 -0.419212 0.198475 -0.0562755 0 0 0 -5.52927 -1.82364 -6.50859 0.05 
1277 1 1 0.441945 0.263356 0.406301 0 0 0 -0.0109899 0.0555742 0.243687 0 0 0 7.05282 10.3832 -12.1341 0.05 
1503 1 1 0.55007 0.244593 0.401524 0 0 0 -0.185362 -0.136858 -0.248774 0 0 0 -4.28184 2.93534 -2.73873 0.05 
1266 1 1 0.672287 0.252387 0.394268 0 0 0 -0.0644073 0.0736665 0.0120942 0 0 0 6.11798 0.691728 3.96135 0.05 
29 1 1 0.130277 0.368789 0.383349 0 0 0 0.362855 0.598783 -0.224282 0 0 0 0.690785 0.676745 -9.98694 0.05 
25 1 1 0.396659 0.357031 0.420492 0 0 0 0.00841877 0.246684 0.459782 0 0 0 3.44643 -7.55411 6.55798 0.05 
621 1 1 0.728241 0.335756 0.399642 0 0 0 -0.1411 -0.411604 -0.094457 -57.3513 -52.33 72.4184 2.45141 -5.78718 3.65531 0.05 
40 1 1 0.645203 0.443516 0.40034 0 0 0 1.44253 -0.547672 -0.194073 118.665 -38.3591 -139.164 -0.523953 -4.97163 -9.88094 0.05 
1306 1 1 0.820329 0.152083 0.798615 0 0 0 0.308991 -0.103976 0.207184 0 0 0 17.0844 4.18392 -2.91086 0.05 
261 1 1 0.702832 0.0592454 0.546168 0 0 0 -0.401107 -0.116994 0.0623904 9.91383 -22.8118 2.16159 0.231993 5.12818 7.42322 0.05 
1493 1 1 0.578026 0.450315 0.473282 0 0 0 1.43212 0.592999 -0.0224369 -69.7752 -70.345 137.531 3.39306 3.31785 -15.4805 0.05 
32 1 1 0.809886 0.450787 0.452606 0 0 0 1.56719 -0.811662 -0.0760036 169.005 -377.288 16.1971 0.260851 -4.04562 -56.0277 0.05 
1552 1 1 0.819528 0.142008 0.177123 0 0 0 -0.114827 0.153101 0.0778871 81.842 -22.4465 -35.7645 10.5223 0.393748 1.32032 0.05 
1575 1 1 0.0513251 0.0699365 0.458703 0 0 0 -0.25116 0.389681 0.25387 0 0 0 6.51093 1.36607 6.43937 0.05 
1058 1 1 0.136342 0.0567139 0.52044 0 0 0 0.390435 0.246435 0.623263 -95.804 50.0673 -89.9057 8.37849 -5.09967 -9.35623 0.05 
1625 1 1 0.227685 0.0504467 0.478984 0 0 0 0.101925 0.0446595 -0.117008 0 0 0 7.73109 2.98001 -2.63783 0.05 
843 1 1 0.588104 0.0539425 0.464633 0 0 0 -0.808531 0.128243 0.211904 -25.6204 3.54177 -6.62361 0.198424 4.93508 14.1681 0.05 
475 1 1 0.390191 0.0519768 0.471329 0 0 0 -1.37762 0.0545265 -0.0683971 0 0 0 0.974392 -11.0056 -68.5462 0.05 
330 1 1 0.0497884 0.21172 0.478682 0 0 0 0.142814 0.263918 0.293753 52.8003 -11.7335 -8.1519 2.9972 -7.04949 7.70764 0.05 
466 1 1 0.528413 0.132246 0.488509 0 0 0 -0.48479 0.284476 0.10249 -22.4687 -1.37992 48.0881 -2.9547 -2.46811 4.22828 0.05 
1428 1 1 0.660603 0.146422 0.5036 0 0 0 -0.166655 0.0672286 -0.0533006 0 0 0 1.86244 0.222384 -5.26494 0.05 
976 1 1 0.3715 0.262436 0.494994 0 0 0 -0.406829 0.689729 0.170993 0 0 0 -12.5351 3.57602 -15.5114 0.05 
334 1 1 0.0593638 0.402601 0.453778 0 0 0 -0.285569 0.38463 -0.102646 -119.063 64.854 -17.3629 1.03727 -8.60082 -0.534249 0.05 
697 1 1 0.140408 0.354503 0.485728 0 0 0 -0.0202207 0.591828 0.315907 119.063 -64.854 17.3629 4.61965 -11.6486 10.6937 0.05 
331 1 1 0.350394 0.357547 0.524435 0 0 0 0.071579 0.866436 0.22184 0 0 0 18.8627 -6.0747 14.0764 0.05 
1270 1 1 0.826447 0.345255 0.424715 0 0 0 -0.265632 -0.0767644 -0.113571 0 0 0 2.321 1.80155 3.37484 0.05 
37 1 1 0.256338 0.371983 0.492986 0 0 0 -0.051856 0.838161 0.25866 0 0 0 -10.0086 5.01248 18.3638 0.05 
1209 1 1 0.538882 0.352487 0.439079 0 0 0 0.49157 0.264776 -0.00489089 0 0 0 -6.68427 -9.09307 -13.1615 0.05 
1507 1 1 0.708274 0.342914 0.503767 0 0 0 1.01912 -0.522529 0.0277881 0 0 0 -5.3794 -1.85482 -1.34207 0.05 
628 1 1 0.330063 0.449258 0.472395 0 0 0 1.55695 -0.0101493 -0.0705081 0 0 0 1.21878 4.78996 -68.4895 0.05 
1347 1 1 0.187619 0.143164 0.527408 0 0 0 -0.24181 0.0130244 0.258955 0 0 0 -0.826859 6.03591 -3.13912 0.05 
172 1 1 0.311596 0.0494894 0.546648 0 0 0 -0.603005 0.0986346 -0.104055 -76.5959 200.51 -13.5909 -1.65042 -0.245602 -1.27991 0.05 
1423 1 1 0.408255 0.0497452 0.573656 0 0 0 -0.56228 0.0501692 -0.115168 -32.2111 71.672 -1.63065 -6.45936 -2.42686 -7.00267 0.05 
185 1 1 0.60503 0.050792 0.563794 0 0 0 -0.285505 0.0346746 0.225961 3.6719 -0.492848 19.4886 -3.92383 -1.67532 -10.0319 0.05 
487 1 1 0.506284 0.062701 0.556951 0 0 0 -0.425571 0.0760871 0.0227345 -61.8881 22.497 -14.3209 0.733728 -2.13654 6.62603 0.05 
979 1 1 0.203658 0.27714 0.525757 0 0 0 -0.00722977 0.169535 0.150059 0 0 0 -1.89149 9.84951 -6.87953 0.05 
388 1 1 0.269156 0.208439 0.558168 0 0 0 0.0306766 -0.293052 -0.0786237 0 0 0 2.5344 -0.639846 -0.557543 0.05 
1360 1 1 0.463209 0.192587 0.538168 0 0 0 -0.737985 0.124086 0.109601 0 0 0 -0.947548 12.3646 -7.37304 0.05 
235 1 1 0.760969 0.149294 0.498279 0 0 0 -0.314495 0.197307 -0.094178 0 0 0 3.58149 7.47323 -1.53622 0.05 
403 1 1 0.0503938 0.319317 0.512536 0 0 0 -0.06841 0.468741 0.0749293 0 0 0 4.20158 3.14519 -7.0571 0.05 
1281 1 1 0.278219 0.31645 0.585457 0 0 0 -0.118775 0.0763709 -0.266069 0 0 0 -5.54658 8.54105 0.527505 0.05 
927 1 1 0.368473 0.238606 0.594995 0 0 0 0.158951 0.369033 0.117896 0 0 0 0.584475 -6.46713 -5.77619 0.05 
38 1 1 0.581905 0.219517 0.500601 0 0 0 1.02919 -0.72301 -0.762246 -28.0499 3.28751 3.14287 -8.65201 -17.0203 -3.86156 0.05 
1571 1 1 0.67771 0.247613 0.502862 0 0 0 -0.0304306 -0.147017 -0.107329 28.0499 -3.28751 -3.14287 -4.62526 4.52121 5.00878 0.05 
95 1 1 0.77808 0.266081 0.49199 0 0 0 -0.01514 0.185561 -0.239638 -40.3181 122.539 92.2849 -2.75409 1.38239 -1.07654 0.05 
987 1 1 0.497392 0.279924 0.501817 0 0 0 0.224096 0.0538157 -0.464722 0 0 0 -8.43873 -6.04529 -8.99338 0.05 
36 1 1 0.174521 0.450255 0.527134 0 0 0 1.50698 -0.38162 -0.476271 18.2452 -66.8705 14.1614 12.1373 6.77102 -73.6808 0.05 
932 1 1 0.606569 0.364963 0.520834 0 0 0 0.882188 -0.811579 0.40745 0 0 0 -8.91704 2.92574 -2.07775 0.05 
1205 1 1 0.790582 0.331571 0.569442 0 0 0 0.0618095 0.0470353 0.400392 0 0 0 12.524 1.7986 5.12084 0.05 
926 1 1 0.411674 0.449541 0.543282 0 0 0 1.4142 -0.170734 0.602182 -98.0082 368.539 32.0042 -1.41282 -3.34778 -62.661 0.05 
33 1 1 0.455292 0.370927 0.501614 0 0 0 -0.258392 -0.262534 -0.435596 98.0082 -368.539 -32.0042 12.6089 10.1799 19.701 0.05 
1208 1 1 0.711387 0.441903 0.519166 0 0 0 2.18111 -0.360132 -0.174208 0 0 0 4.10944 -18.4595 -56.8294 0.05 
748 1 1 0.699999 0.0498872 0.224688 0 0 0 -0.354589 0.032755 0.167281 -113.637 -22.2281 -175.928 3.26611 -8.58714 -20.4663 0.05 
1289 1 1 0.0501811 0.0875429 0.562471 0 0 0 -0.0348237 -0.0002172 0.110787 -1.59508 -1.24718 -0.0377445 4.89061 3.80716 0.696993 0.05 
396 1 1 0.0969541 0.175855 0.559496 0 0 0 -0.377494 0.0456577 0.354918 -78.6627 -8.02542 -29.2712 0.980397 -4.19387 3.18974 0.05 
1654 1 1 0.173375 0.189763 0.621931 0 0 0 -0.397505 0.294716 0.0700633 31.1104 -19.015 8.43795 -7.08447 6.30169 -2.6554 0.05 
1212 1 1 0.0511237 0.25934 0.592688 0 0 0 -0.00127343 0.230929 0.0898528 -13.1571 18.6022 -11.0794 0.594209 2.60501 3.24646 0.05 
1273 1 1 0.308897 0.133093 0.61093 0 0 0 -0.0601331 -0.347088 0.105814 0 0 0 -3.96405 -1.35875 -1.38207 0.05 
1356 1 1 0.410158 0.147723 0.612437 0 0 0 -0.232958 0.00614098 0.206496 0 0 0 1.32122 -0.0821711 -1.7044 0.05 
192 1 1 0.509993 0.153722 0.617578 0 0 0 -0.293548 0.0830564 0.0270493 -28.0393 15.6009 -79.6051 -7.65834 1.72823 -1.88422 0.05 
106 1 1 0.700125 0.145786 0.601823 0 0 0 0.0245324 0.0114006 -0.0060788 22.4051 -14.4712 12.9149 1.88598 6.75954 -13.1377 0.05 
1587 1 1 0.141819 0.353525 0.594786 0 0 0 0.215615 0.57588 -0.232051 0 0 0 -2.11151 -9.38687 -5.58219 0.05 
1062 1 1 0.203504 0.284263 0.645444 0 0 0 -0.0553109 0.333612 0.0682203 0 0 0 5.36909 -4.49491 3.70419 0.05 
1364 1 1 0.604482 0.16827 0.583996 0 0 0 0.386883 -0.73339 0.804202 -22.4051 14.4712 -12.9149 -7.46175 -17.1344 -2.55705 0.05 
335 1 1 0.488582 0.266553 0.608168 0 0 0 0.046223 0.539684 0.283624 0 0 0 -0.51291 -4.01244 -2.4986 0.05 
188 1 1 0.714927 0.255241 0.598667 0 0 0 -0.0621581 -0.166144 -0.00715645 0 0 0 -6.06971 0.482168 10.0551 0.05 
268 1 1 0.760992 0.051073 0.682434 0 0 0 -0.630396 0.159979 0.163019 0 0 0 -7.17122 -0.455114 -0.838324 0.05 
1220 1 1 0.0592223 0.415108 0.579818 0 0 0 0.151143 0.594849 -0.29411 0 0 0 0.941654 5.11159 0.724972 0.05 
347 1 1 0.239967 0.411505 0.595756 0 0 0 1.1778 -0.497619 0.146195 0 0 0 -15.3156 1.89601 31.7109 0.05 
400 1 1 0.61985 0.28311 0.579046 0 0 0 0.021821 0.0413586 0.11183 0 0 0 -1.02142 2.30062 -1.37759 0.05 
49 1 1 0.427715 0.45081 0.669649 0 0 0 0.934694 -0.0545255 -0.61628 183.761 -410.285 17.8765 7.86821 6.90544 -35.1215 0.05 
633 1 1 0.409388 0.366252 0.613365 0 0 0 0.0307866 0.269752 0.107665 0 0 0 3.15236 15.0362 -10.513 0.05 
1217 1 1 0.519481 0.362902 0.585701 0 0 0 0.490943 0.0774522 0.14069 0 0 0 5.04377 -12.8267 5.69399 0.05 
68 1 1 0.830236 0.364822 0.948547 0 0 0 0.635948 0.179519 -0.0715282 0 0 0 0.424772 1.51338 0.848579 0.05 
1216 1 1 0.332981 0.440858 0.638407 0 0 0 1.31839 -0.232714 -0.169285 0 0 0 0.901329 0.263462 -52.0466 0.05 
1568 1 1 0.801448 0.157632 0.589372 0 0 0 -0.322657 0.117399 0.0635561 0 0 0 -1.33782 -2.11416 -0.0194042 0.05 
1536 1 1 0.292857 0.338743 0.950044 0 0 0 -0.0222131 0.568589 0.0719217 0.940743 -2.44884 -5.8296 -1.27221 -4.41471 -14.3797 0.05 
416 1 1 0.13336 0.0958561 0.619232 0 0 0 0.209285 0.590766 -0.212874 -0.369545 -0.345564 -0.280142 1.80242 3.80017 4.48984 0.05 
772 1 1 0.217425 0.0604326 0.578086 0 0 0 -0.201299 0.118749 -0.240765 80.6606 -46.7106 103.897 15.3988 4.20073 -8.16904 0.05 
260 1 1 0.472441 0.0511172 0.6507 0 0 0 -0.432447 0.156129 -0.0998631 0 0 0 -3.90757 -7.46319 -4.21206 0.05 
1146 1 1 0.668834 0.0509338 0.640749 0 0 0 -0.440331 0.0664351 -0.307437 56.8155 -59.9954 4.63057 -0.198313 4.06946 0.606174 0.05 
482 1 1 0.290051 0.0930752 0.703023 0 0 0 -0.109354 0.0388512 0.427793 69.2058 5.42717 -53.7135 -1.72693 3.81465 -4.89008 0.05 
554 1 1 0.578316 0.0906545 0.653566 0 0 0 -0.473832 -0.00770225 0.0270121 9.18649 38.903 26.9683 8.08441 -0.525691 0.194831 0.05 
1293 1 1 0.0821578 0.19735 0.664546 0 0 0 -0.000214709 0.0255081 -0.0364796 13.1571 -18.6022 11.0794 5.33873 -6.75645 0.126286 0.05 
642 1 1 0.314267 0.283928 0.673341 0 0 0 0.143167 0.566055 -0.360578 43.684 48.0374 20.6412 0.527841 -4.60235 -1.93491 0.05 
1218 1 1 0.415322 0.284274 0.675227 0 0 0 0.00372592 0.409668 0.256119 0 0 0 1.37236 -3.08405 0.970429 0.05 
1214 1 1 0.572733 0.234423 0.652661 0 0 0 -0.0552879 0.189302 0.366835 0.013008 6.03254 -12.4978 2.83961 1.72306 -6.683 0.05 
1515 1 1 0.581643 0.332649 0.67006 0 0 0 0.563807 0.0396994 -0.231008 0 0 0 -3.92975 0.781041 3.57736 0.05 
1511 1 1 0.697626 0.349171 0.628495 0 0 0 0.0637458 -1.01561 -0.00141767 0 0 0 -9.58403 -2.23761 15.9025 0.05 
1030 1 1 0.800803 0.134083 0.0502733 0 0 0 0.050603 0.78045 -0.0970675 156.507 -232.787 15.41 -0.718786 -2.7319 10.5196 0.05 
44 1 1 0.799051 0.432437 0.594648 0 0 0 1.14861 0.362463 -0.385008 0 0 0 -8.97038 13.7253 -57.7422 0.05 
1579 1 1 0.373091 0.0503056 0.667437 0 0 0 -0.293915 -0.0946933 -0.058949 1.90993 -1.69974 -2.28692 16.0016 1.4067 -3.53259 0.05 
637 1 1 0.0504818 0.0771797 0.677217 0 0 0 0.109494 -0.121789 0.0377619 0 0 0 4.48456 -3.96628 -0.567168 0.05 
118 1 1 0.194873 0.122541 0.693404 0 0 0 -0.0717539 0.266612 0.156355 24.6823 17.2464 0.07896 1.49855 -7.29599 1.28309 0.05 
1285 1 1 0.162804 0.212965 0.724042 0 0 0 -0.355348 0.420084 0.159727 -1.93422 -2.72348 -3.56077 -5.59963 5.73591 3.60436 0.05 
114 1 1 0.553067 0.16239 0.719034 0 0 0 -0.261183 0.23715 0.130918 43.1676 -8.70687 -18.2662 -7.89404 5.71748 -0.178314 0.05 
1518 1 1 0.0551213 0.334161 0.659835 0 0 0 0.0474009 0.447435 -0.0342767 0 0 0 -2.75117 3.94389 3.36774 0.05 
404 1 1 0.256875 0.20242 0.674966 0 0 0 0.0245026 0.466751 -0.409819 7.02769 -9.69703 -42.0907 -1.36976 4.23757 -0.956323 0.05 
764 1 1 0.35702 0.191799 0.691852 0 0 0 -0.0759504 0.0128024 0.187731 0 0 0 1.51963 -2.0606 -2.15608 0.05 
1583 1 1 0.458379 0.194755 0.69239 0 0 0 0.0241364 0.279467 -0.0127088 27.631 -5.84868 -12.3719 4.04416 3.31424 -3.73407 0.05 
486 1 1 0.667352 0.208892 0.677668 0 0 0 0.128263 0.00317217 0.134912 0 0 0 1.31203 -1.36019 9.47713 0.05 
110 1 1 0.805949 0.245483 0.64266 0 0 0 0.170445 0.642164 -0.245274 23.0065 63.1665 -72.5208 -3.82319 -6.79327 -9.56212 0.05 