ITEM: TIMESTEP
0
ITEM: NUMBER OF ATOMS
2088
ITEM: BOX BOUNDS pp pp pp
0 5
0 0.5
0 1
ITEM: ATOMS id type type x y z ix iy iz vx vy vz fx fy fz omegax omegay omegaz radius 
353 1 1 0.368294 0.0498199 0.0498857 0 0 0 -5.07581e-11 -9.21493e-11 -1.55268e-11 0.0156768 -0.0131487 0.00820338 -8.76826e-10 -1.63052e-10 4.41227e-10 0.05 
1393 1 1 0.563402 0.0499099 0.049951 0 0 0 1.25854e-10 -2.23995e-10 -3.69726e-10 0.00361271 0.0103208 -0.00362751 -1.8498e-09 -1.45381e-09 8.37171e-10 0.05 
5 1 1 0.273676 0.0818623 0.0498953 0 0 0 8.17301e-11 -2.90507e-10 2.39663e-11 0.00520619 -0.0116754 0.0050195 4.1064e-09 1.53897e-09 1.50052e-09 0.05 
1045 1 1 0.465812 0.0712164 0.0503129 0 0 0 -1.28541e-11 -2.52471e-10 -3.12896e-10 -0.00144679 -0.00450409 -0.00512418 -5.22163e-09 4.72581e-09 -1.33915e-09 0.05 
2 1 1 0.755484 0.0743036 0.0498816 0 0 0 9.97807e-10 -5.41357e-10 -6.20322e-11 -0.00759225 -0.000198636 -0.00205207 1.64712e-08 4.48873e-11 1.10369e-08 0.05 
350 1 1 0.187955 0.14279 0.0499256 0 0 0 -6.18331e-11 -2.51567e-10 4.72896e-10 0.0129633 -0.00672974 -0.00540516 -1.70168e-09 -1.37156e-09 1.53869e-08 0.05 
1394 1 1 0.496531 0.166239 0.0499135 0 0 0 1.93048e-10 -4.43482e-10 -5.02463e-10 -0.0173899 0.0120056 0.0045627 3.70638e-09 5.16197e-09 -5.35607e-09 0.05 
701 1 1 0.5959 0.155735 0.0498912 0 0 0 2.38477e-10 -8.04636e-10 -8.16054e-10 -0.0186443 -0.00825352 0.00807046 1.12804e-08 3.07014e-09 -1.24141e-09 0.05 
1742 1 1 0.697255 0.155542 0.0499555 0 0 0 4.67128e-10 -6.06163e-10 -3.47713e-10 -0.00301199 0.0127089 -0.00256005 -7.83851e-10 2.38178e-10 1.17836e-09 0.05 
1049 1 1 0.811503 0.15702 0.0528057 0 0 0 2.14139e-09 -8.05903e-10 -3.38521e-10 0.00134911 -0.00744324 0.000532054 -2.26589e-08 1.49169e-08 -1.73151e-08 0.05 
1047 1 1 0.411795 0.219147 0.0499471 0 0 0 -8.41831e-12 -3.69152e-10 9.23739e-12 0.000877515 0.00163999 -0.00566144 1.75234e-09 3.28217e-09 2.12221e-09 0.05 
3 1 1 0.0499061 0.23905 0.0498707 0 0 0 8.30998e-11 -3.93278e-10 2.78325e-10 0.00952912 0.000303751 -0.00600081 3.70286e-09 -1.08194e-09 -7.92413e-09 0.05 
351 1 1 0.225992 0.235157 0.0500292 0 0 0 -4.7063e-10 -2.83737e-10 2.87809e-10 -0.00384173 0.00614392 0.00217907 -2.99152e-10 6.63352e-09 -5.5162e-09 0.05 
699 1 1 0.321988 0.262902 0.049947 0 0 0 -2.72915e-10 -5.45555e-10 2.3923e-10 0.00132976 -0.00866792 -0.00112745 3.14323e-09 -3.78296e-09 1.00708e-09 0.05 
1395 1 1 0.515852 0.264276 0.049928 0 0 0 4.13613e-11 -5.80159e-10 -1.09791e-09 0.00967163 0.00410177 -0.00227195 3.03231e-10 -1.82522e-09 1.04491e-08 0.05 
1743 1 1 0.737671 0.246997 0.0499256 0 0 0 1.4898e-09 -1.37021e-09 -3.03726e-10 0.00201277 -0.0201475 0.000793685 3.0706e-08 -7.27748e-09 -1.97499e-08 0.05 
4 1 1 0.18616 0.326813 0.0499426 0 0 0 -4.69026e-10 -4.18559e-10 4.29795e-10 0.003074 0.00127826 -0.000719039 9.08552e-09 -1.26583e-08 3.11656e-09 0.05 
700 1 1 0.411816 0.31909 0.049999 0 0 0 -7.3073e-10 -6.79353e-10 -6.5647e-10 -0.0036389 0.000144235 0.00183315 -9.28045e-09 6.47594e-09 1.11482e-08 0.05 
1396 1 1 0.577088 0.357158 0.0499456 0 0 0 3.05943e-10 -5.15201e-10 -1.2109e-09 0.00281299 0.000668536 0.000972705 1.40427e-08 8.92329e-09 -1.80316e-08 0.05 
702 1 1 0.778001 0.341041 0.0499761 0 0 0 1.4999e-09 -8.59339e-10 -1.22538e-09 -0.00528021 -0.00423485 0.00287817 -8.39952e-09 -1.45964e-08 -1.01672e-08 0.05 
1048 1 1 0.1122 0.39407 0.0499824 0 0 0 -4.75409e-10 -3.47623e-10 1.81369e-10 -0.00116662 -0.000218658 -0.00011016 3.50702e-09 -6.25617e-09 -3.60677e-09 0.05 
1 1 1 0.090453 0.0499376 0.0580514 0 0 0 1.50932e-06 8.77275e-10 -5.14117e-06 0.00071041 0.00341121 -8.89855e-05 -0.000102878 -0.000107007 -3.02046e-05 0.05 
349 1 1 0.186396 0.0497668 0.0862105 0 0 0 4.17352e-10 -2.24828e-10 5.50158e-10 0.00704561 0.00372596 -0.0160615 9.90942e-09 1.44501e-08 -8.22453e-09 0.05 
1744 1 1 0.66102 0.0498869 0.0712462 0 0 0 6.16469e-10 -4.89336e-10 -3.73869e-10 0.00243586 0.00781033 -0.00262459 -6.58069e-09 8.18401e-10 -1.11625e-08 0.05 
1741 1 1 0.049977 0.13977 0.0748718 0 0 0 -1.14359e-09 -1.51455e-06 -6.73579e-07 -0.00221119 -0.000517914 0.00254048 0.000250513 4.87645e-08 4.37907e-05 0.05 
1046 1 1 0.39016 0.13441 0.0982596 0 0 0 -8.67756e-11 -4.08434e-10 -5.09098e-11 0.0176223 -0.000267035 -0.00343088 3.75181e-09 4.24865e-09 -1.718e-09 0.05 
704 1 1 0.130089 0.206965 0.100132 0 0 0 -3.9975e-10 -8.61976e-10 6.20171e-10 -0.0111244 0.0021308 0.00384201 -4.18094e-10 -2.15047e-10 -2.45836e-09 0.05 
698 1 1 0.298598 0.17214 0.0846207 0 0 0 -1.51485e-10 -5.53354e-10 3.29077e-10 -0.0163024 0.00659122 -0.00242499 3.6426e-09 -1.89955e-09 3.90325e-09 0.05 
6 1 1 0.615001 0.253541 0.0570657 0 0 0 1.2748e-09 -1.44791e-09 -2.63433e-09 0.000910218 -0.00162949 0.00015088 -2.18838e-08 2.56355e-08 -2.18095e-08 0.05 
1745 1 1 0.0509243 0.328621 0.094189 0 0 0 -2.22754e-10 -6.59009e-10 2.56008e-10 0.00713591 -0.000308324 0.00138335 -3.99879e-09 1.46101e-09 1.57988e-08 0.05 
352 1 1 0.678813 0.330446 0.0563183 0 0 0 1.5439e-09 -1.48192e-09 -3.48606e-09 0.000547668 0.000492701 -0.00125868 8.94621e-09 -1.10637e-08 2.13346e-08 0.05 
354 1 1 0.322275 0.362234 0.0609632 0 0 0 -7.88953e-10 -1.00276e-09 4.83511e-10 0.00294638 0.000536417 -0.000125523 2.39061e-09 1.38448e-08 3.75592e-09 0.05 
1402 1 1 0.236664 0.398807 0.0974254 0 0 0 -1.99855e-10 -8.97083e-10 1.47162e-09 -0.00050111 -6.42526e-05 0.00013826 2.72378e-09 1.05864e-08 -8.41433e-09 0.05 
1746 1 1 0.0510781 0.0499557 0.154379 0 0 0 -2.66092e-05 7.53096e-15 8.88142e-06 3.18195e-19 -2.86882e-12 1.13987e-18 0.000177707 0.000114826 0.000532419 0.05 
7 1 1 0.321827 0.0498634 0.138336 0 0 0 1.20284e-10 -1.68825e-10 3.90285e-10 0.00919062 0.0133124 -0.00669738 8.86407e-09 7.11275e-09 -2.3349e-09 0.05 
1050 1 1 0.421728 0.0498962 0.141211 0 0 0 -7.78402e-11 -1.73611e-10 4.56535e-12 -0.00249807 -0.00234383 0.0116995 -2.16414e-09 -4.36297e-09 3.43705e-09 0.05 
355 1 1 0.698893 0.0497331 0.163851 0 0 0 9.93231e-10 -3.53034e-10 -3.60548e-10 0.0222142 -0.0166603 -0.00869487 -4.44752e-09 4.10707e-09 -5.55567e-09 0.05 
703 1 1 0.125979 0.113121 0.134112 0 0 0 5.26511e-10 -9.57193e-10 1.13835e-09 0.0129808 0.00665438 0.00186693 -7.65358e-09 -5.5248e-09 2.45582e-08 0.05 
1051 1 1 0.243044 0.111176 0.141063 0 0 0 2.42373e-10 -3.47485e-10 6.68002e-10 0.00165703 0.00285497 -6.33709e-05 -8.56066e-09 -1.39812e-09 6.18527e-09 0.05 
1747 1 1 0.541239 0.114629 0.122797 0 0 0 4.12838e-10 -8.45543e-10 -1.03526e-09 0.0152984 -0.0149247 -0.0148033 -1.43766e-09 9.54745e-09 -3.19754e-09 0.05 
356 1 1 0.646398 0.128244 0.131535 0 0 0 5.89865e-10 -9.28679e-10 -9.30044e-10 0.00196421 0.00232573 0.0180409 -1.62259e-09 -5.35963e-09 8.63013e-09 0.05 
1751 1 1 0.754414 0.127362 0.134528 0 0 0 2.85826e-09 -1.32614e-09 -7.64832e-10 0.00726118 -0.00887206 0.00628092 -1.89287e-08 7.35546e-09 -4.22273e-08 0.05 
1052 1 1 0.216929 0.207193 0.149652 0 0 0 -3.00663e-10 -4.6199e-10 3.48517e-10 -0.00938462 0.0013443 -0.00370687 -4.26771e-09 7.11857e-09 4.43636e-09 0.05 
1400 1 1 0.357905 0.209374 0.155892 0 0 0 -4.79712e-10 -8.09894e-10 5.63717e-10 -0.00537059 0.000400166 8.40062e-05 3.02061e-09 3.45224e-09 7.97146e-09 0.05 
8 1 1 0.465479 0.173114 0.151305 0 0 0 2.98398e-10 -8.8767e-10 -9.69033e-10 0.00952084 -0.0116774 0.00541513 -1.08121e-08 3.01222e-09 -5.74413e-09 0.05 
1053 1 1 0.573242 0.20839 0.135893 0 0 0 5.56213e-10 -7.62432e-10 -3.02054e-09 -0.0033723 0.00129992 0.00331479 -3.08628e-08 -3.35368e-08 3.80001e-09 0.05 
1401 1 1 0.691928 0.217064 0.133497 0 0 0 9.49417e-10 -1.61987e-09 -1.91116e-09 -0.019566 0.00972521 -0.00327947 -2.02063e-08 -4.31414e-09 -7.1592e-09 0.05 
1748 1 1 0.797247 0.217478 0.131159 0 0 0 4.61451e-09 -1.96552e-09 -8.35975e-10 0.00113551 -0.00465581 0.00544226 7.08299e-09 -1.95535e-08 1.38519e-08 0.05 
9 1 1 0.049865 0.245406 0.149537 0 0 0 -6.98575e-12 -4.23572e-10 6.76659e-10 -0.012983 -0.0209254 0.0136556 -3.06197e-09 -1.04491e-08 -7.43279e-09 0.05 
705 1 1 0.452129 0.268997 0.126755 0 0 0 -1.31823e-11 -1.23301e-09 -1.39545e-09 0.00696143 -0.00165626 0.000602289 -3.09185e-09 1.2031e-08 9.06836e-09 0.05 
360 1 1 0.163428 0.291949 0.140807 0 0 0 -5.31445e-10 -5.63308e-10 2.81873e-10 -0.0126585 -0.00116155 -0.00763868 -9.82506e-09 5.09764e-09 5.81212e-09 0.05 
357 1 1 0.261965 0.292669 0.124115 0 0 0 -3.89713e-10 -6.84316e-10 2.56661e-10 0.000793294 0.000209026 0.000162564 4.08607e-09 -4.92215e-09 -7.2911e-09 0.05 
1749 1 1 0.360207 0.307187 0.135316 0 0 0 -2.36264e-10 -1.44809e-09 -3.02643e-11 -0.00144949 -0.0044663 0.00372782 -1.22863e-09 1.17626e-08 -4.92969e-09 0.05 
358 1 1 0.541101 0.314217 0.132707 0 0 0 6.06516e-12 -1.20961e-09 -2.23522e-09 -0.00426852 0.00192069 0.00355542 7.52806e-09 1.70259e-09 -2.46483e-09 0.05 
10 1 1 0.74486 0.297812 0.159224 0 0 0 3.44917e-09 -2.33255e-09 -3.28674e-09 0.0136366 0.00436297 -0.00679155 -1.53544e-08 3.07339e-09 -1.80131e-08 0.05 
13 1 1 0.109737 0.37373 0.161292 0 0 0 -3.76001e-10 -3.18363e-10 -2.36757e-10 0.000789259 0.00189753 9.8272e-05 -4.1049e-09 7.26996e-09 -3.73318e-09 0.05 
709 1 1 0.451263 0.368937 0.127189 0 0 0 -1.34848e-09 -1.25138e-09 -2.05292e-09 -0.00427841 0.000275729 0.00105082 -1.26469e-09 7.64541e-10 1.61281e-08 0.05 
706 1 1 0.631386 0.375765 0.131784 0 0 0 1.8645e-09 -2.13696e-09 -2.60317e-09 -0.00487568 0.00119417 0.000671486 4.19757e-09 1.34631e-08 -2.38616e-08 0.05 
1054 1 1 0.729981 0.389731 0.122892 0 0 0 1.83997e-09 -1.90255e-09 -3.08123e-09 -0.00130324 -5.27351e-05 0.000843926 5.67185e-09 9.82609e-09 3.20062e-08 0.05 
1750 1 1 0.180451 0.0498394 0.189049 0 0 0 3.77874e-10 -1.9207e-10 8.8181e-10 -0.0030407 -0.0170209 -0.00216336 1.31271e-08 5.04433e-09 -7.219e-09 0.05 
14 1 1 0.508443 0.0498863 0.213056 0 0 0 1.28485e-12 -1.4617e-10 -5.88685e-10 -0.0146909 0.000365758 -0.00394388 -9.49843e-09 1.327e-08 5.31682e-10 0.05 
11 1 1 0.599334 0.049793 0.171579 0 0 0 3.9667e-10 -5.96626e-10 -7.88573e-10 0.0278887 0.0200471 -0.000944808 -1.06157e-08 -8.32466e-09 -1.14746e-09 0.05 
1398 1 1 0.797109 0.0499764 0.181591 0 0 0 1.39683e-09 2.04994e-10 3.40718e-10 -0.00731491 -0.0170679 0.00142571 6.65442e-09 -1.63444e-08 6.3784e-09 0.05 
359 1 1 0.429423 0.110516 0.220286 0 0 0 -1.94687e-10 -7.43031e-11 -4.70952e-11 -0.00390649 0.00286436 -0.000244647 -1.99234e-09 5.5176e-09 -1.46445e-09 0.05 
707 1 1 0.0498352 0.152107 0.18554 0 0 0 1.96348e-10 -8.68081e-10 4.52916e-10 -0.00614997 -0.00388996 0.0109201 -8.37341e-09 -2.80371e-09 -1.74145e-08 0.05 
1399 1 1 0.331786 0.125229 0.203141 0 0 0 -2.16471e-10 -4.05844e-10 9.29171e-10 0.00414212 -0.00405102 -0.0053509 -1.98682e-09 -8.34813e-09 4.4898e-09 0.05 
1403 1 1 0.58643 0.140981 0.210372 0 0 0 -2.41443e-10 -1.29845e-09 -1.86313e-09 0.00064336 0.00942472 -0.00719449 -7.62316e-09 -8.74558e-09 7.30158e-09 0.05 
12 1 1 0.131436 0.218212 0.200163 0 0 0 1.62484e-10 -3.37747e-10 1.23988e-09 0.0213116 -0.00201783 0.00938626 -4.09424e-09 1.01327e-08 4.44446e-09 0.05 
16 1 1 0.752005 0.218947 0.220246 0 0 0 3.54114e-09 -1.76373e-09 -1.95054e-09 -0.00529267 0.00591358 -0.00208637 -6.10788e-09 -7.56388e-09 -1.25338e-08 0.05 
364 1 1 0.0499765 0.317699 0.218576 0 0 0 1.02213e-11 7.9037e-11 2.27995e-10 -0.00117185 -0.0030601 -0.000353262 -1.08444e-08 1.876e-09 3.99067e-09 0.05 
1060 1 1 0.477527 0.318896 0.209681 0 0 0 -7.53353e-10 -1.74798e-09 -2.97169e-09 -0.00195512 -0.00091064 -0.00489984 -3.39396e-09 9.19446e-09 -3.11771e-09 0.05 
1056 1 1 0.628186 0.284033 0.171303 0 0 0 6.47147e-10 -1.97537e-09 -3.6134e-09 0.00685239 0.0150507 0.00170231 1.3281e-08 -1.0861e-09 -2.64355e-09 0.05 
1759 1 1 0.20621 0.369552 0.18803 0 0 0 3.09445e-10 -7.4832e-10 1.66434e-09 0.000137115 0.00113498 0.00159817 4.62331e-10 -2.11662e-09 2.78333e-09 0.05 
361 1 1 0.304511 0.382975 0.169122 0 0 0 6.46606e-10 -1.25155e-09 6.40976e-10 0.00101218 0.0024288 0.000485557 -7.22326e-09 1.74397e-08 -1.35382e-08 0.05 
1057 1 1 0.824137 0.358179 0.167345 0 0 0 3.19995e-09 -1.74497e-09 -5.1029e-09 -0.00417876 -0.00105032 -0.000541227 -6.85354e-08 -1.48613e-08 4.41714e-08 0.05 
1405 1 1 0.0744446 0.0498783 0.261601 0 0 0 -1.79317e-10 -9.21369e-11 6.24619e-11 -0.016104 0.00986468 0.00213057 -1.07142e-09 -2.74729e-08 2.95795e-09 0.05 
710 1 1 0.271871 0.0498978 0.230055 0 0 0 -1.20867e-10 -6.11286e-11 6.48957e-10 0.00583936 0.00104181 -0.000296289 1.12799e-08 -1.64343e-09 3.28297e-10 0.05 
1753 1 1 0.364898 0.0498927 0.266527 0 0 0 -1.95601e-10 8.58822e-11 4.65969e-10 -0.00449942 0.0186672 0.00615477 3.24445e-09 3.72176e-09 1.88046e-09 0.05 
713 1 1 0.589789 0.0498762 0.271051 0 0 0 2.89482e-10 -3.29183e-10 -1.27805e-09 -0.00461731 -0.00273354 0.00975458 -1.26554e-08 2.52086e-10 -1.33823e-08 0.05 
1055 1 1 0.134953 0.125161 0.236197 0 0 0 3.50558e-10 -2.05326e-10 1.45215e-09 0.0162381 -0.0114534 -0.0049013 1.22642e-09 -1.21238e-08 -2.6925e-09 0.05 
1410 1 1 0.23143 0.136418 0.259401 0 0 0 -1.91945e-10 -2.5253e-10 1.66013e-09 0.00149956 -0.0157136 0.00206988 2.54672e-09 7.02681e-09 5.68524e-09 0.05 
366 1 1 0.707596 0.129528 0.223242 0 0 0 2.03626e-09 -7.79829e-10 -1.56296e-09 0.0169456 -0.00114592 -0.00467263 -1.39132e-08 -1.14667e-08 5.95824e-09 0.05 
15 1 1 0.805407 0.127668 0.243776 0 0 0 3.181e-09 -5.04476e-10 5.90306e-10 -0.0108153 0.00284388 0.00937848 1.70995e-10 -1.09881e-08 -5.08375e-08 0.05 
1407 1 1 0.28887 0.211959 0.228118 0 0 0 -5.59502e-11 -5.29891e-10 1.4492e-09 -0.00408965 0.00142195 -0.00297223 7.1968e-09 6.38727e-09 -1.35577e-08 0.05 
1754 1 1 0.380301 0.182484 0.269128 0 0 0 -4.42525e-10 -1.41592e-10 7.38771e-10 -0.000626726 0.0114402 -0.0072709 1.9455e-09 1.25289e-08 4.38246e-10 0.05 
1755 1 1 0.652228 0.21173 0.235929 0 0 0 1.12399e-09 -1.76512e-09 -3.52209e-09 0.00368622 -0.00774645 -0.00838493 -1.14412e-08 1.47857e-08 -4.25007e-09 0.05 
367 1 1 0.390746 0.272187 0.226286 0 0 0 -7.19473e-10 -7.96509e-10 -5.45647e-11 -0.001675 -0.00451636 0.00272296 -1.50106e-08 1.1065e-08 -3.28945e-09 0.05 
363 1 1 0.493719 0.223107 0.233131 0 0 0 -6.7074e-10 -1.39904e-09 -2.12322e-09 -0.00689498 0.000598221 0.00718576 -1.0053e-09 -2.27172e-08 2.54713e-09 0.05 
712 1 1 0.162685 0.301084 0.246394 0 0 0 3.05142e-10 -4.75764e-10 1.44394e-09 -0.00512174 0.00299915 -0.00611474 2.422e-09 1.58266e-09 -4.34053e-09 0.05 
708 1 1 0.274467 0.31079 0.23139 0 0 0 4.31668e-10 -3.69611e-10 1.64334e-09 0.000287711 -0.00261824 -0.00431217 -1.03528e-08 4.68883e-09 5.1956e-10 0.05 
711 1 1 0.57897 0.28237 0.258226 0 0 0 -9.43761e-10 -2.49126e-09 -5.74322e-09 0.00281529 -0.00714443 -0.0017423 1.56796e-08 -3.57213e-08 -3.27184e-08 0.05 
1752 1 1 0.703489 0.289945 0.271161 0 0 0 1.99994e-09 -1.94382e-09 -4.95802e-09 0.00319338 -0.00113009 0.00349058 -2.17777e-08 -1.50277e-08 3.38324e-09 0.05 
1404 1 1 0.814872 0.29283 0.244303 0 0 0 5.80603e-09 -1.38085e-09 -1.66082e-09 -0.000719235 -0.00188996 0.000857352 -4.84115e-08 -3.86626e-08 -1.59999e-08 0.05 
1408 1 1 0.356386 0.358569 0.263034 0 0 0 5.96496e-10 -1.79133e-10 -7.73977e-10 0.00106519 0.00161296 -0.000267886 -2.7456e-08 1.50553e-08 -1.81408e-08 0.05 
715 1 1 0.540698 0.37457 0.263557 0 0 0 -1.55412e-09 -2.49561e-09 -4.46638e-09 0.000628054 -0.000432012 0.000208843 3.51677e-08 5.70154e-09 2.92596e-08 0.05 
20 1 1 0.639722 0.35878 0.236678 0 0 0 1.21643e-09 -2.87365e-09 -6.57474e-09 -7.66454e-05 -0.00169671 0.000807579 -4.20078e-08 2.76489e-08 -6.04972e-10 0.05 
1756 1 1 0.745989 0.369759 0.228604 0 0 0 2.20564e-09 -2.16196e-09 -6.21538e-09 -0.00188963 -0.00141875 -0.00160151 -1.74282e-08 -1.83096e-08 1.4081e-08 0.05 
17 1 1 0.180378 0.0499557 0.290556 0 0 0 -3.37544e-05 -6.74846e-15 -8.65237e-05 4.42766e-18 -2.73914e-12 -1.59946e-18 -0.00173124 0.00135551 0.000675387 0.05 
365 1 1 0.505504 0.0498231 0.327689 0 0 0 -7.59219e-10 -3.9095e-10 -7.47271e-10 0.0102953 -0.00148743 -0.0156157 -1.64232e-08 -8.55978e-09 1.0653e-08 0.05 
362 1 1 0.697699 0.0499095 0.282793 0 0 0 7.47454e-10 -3.57291e-10 -9.22933e-10 0.00539499 -0.00286617 5.54015e-05 -1.03147e-08 -1.77008e-08 -8.51606e-09 0.05 
1061 1 1 0.795051 0.0498364 0.30554 0 0 0 8.53566e-10 3.3029e-10 4.16984e-10 -0.0079352 0.00117289 0.0017491 2.21886e-10 -2.99881e-08 1.16956e-08 0.05 
1409 1 1 0.0498932 0.143969 0.285011 0 0 0 1.28094e-10 1.14543e-10 7.76141e-10 -0.00252731 -0.00179988 -0.00899536 -1.19212e-08 -3.65311e-09 8.88699e-10 0.05 
21 1 1 0.312544 0.11966 0.315283 0 0 0 -3.10189e-10 8.22958e-11 1.24672e-09 -0.00378335 0.00992162 0.0050519 4.76895e-09 1.3598e-09 -1.35616e-09 0.05 
18 1 1 0.426986 0.111498 0.321724 0 0 0 -6.45506e-10 -3.91586e-10 -1.10797e-13 -0.00194263 -3.10518e-05 0.0166753 -1.36168e-08 1.25804e-08 -1.1164e-08 0.05 
1058 1 1 0.513554 0.13631 0.278464 0 0 0 -9.7416e-10 -1.42381e-09 -1.77977e-09 0.00841816 0.00409413 -0.00948864 -6.53811e-09 9.48994e-09 -2.38377e-09 0.05 
1406 1 1 0.63916 0.132987 0.296038 0 0 0 8.57908e-10 -1.04207e-09 -2.76478e-09 -5.07539e-05 0.00472357 0.00738694 -1.21686e-08 -1.48787e-08 -6.13956e-09 0.05 
1758 1 1 0.739714 0.131217 0.323015 0 0 0 -2.95739e-10 -2.42916e-10 -1.64795e-09 -0.00352067 -0.0023533 0.000902386 -1.36048e-08 -4.95533e-09 1.54417e-08 0.05 
717 1 1 0.172525 0.211897 0.290934 0 0 0 2.19992e-10 4.064e-10 1.56495e-09 0.00819382 -0.00219905 -0.0145488 -4.99316e-09 -1.24799e-08 -1.57311e-09 0.05 
714 1 1 0.46104 0.205211 0.328276 0 0 0 -4.9753e-10 -8.02804e-10 -1.43324e-09 0.000882652 -0.0073519 0.00106515 -8.55478e-09 2.13181e-08 -2.14411e-09 0.05 
369 1 1 0.564528 0.20897 0.324437 0 0 0 -2.16798e-09 -7.59434e-10 -4.54692e-09 -0.00608474 0.00451599 0.00482317 -6.25105e-08 -3.78061e-09 3.44867e-08 0.05 
19 1 1 0.81029 0.209492 0.30086 0 0 0 3.73176e-09 -5.19803e-10 -4.80832e-10 0.00582141 -0.00471658 -0.00493692 -1.83359e-08 -2.08568e-08 2.63752e-08 0.05 
1062 1 1 0.0500013 0.243863 0.285923 0 0 0 1.66982e-10 2.55255e-10 5.52812e-10 -0.000948768 -0.00204152 0.0148371 3.35289e-09 -1.14299e-08 1.72309e-09 0.05 
1761 1 1 0.258914 0.256432 0.3138 0 0 0 8.47627e-11 4.52063e-10 2.13928e-09 -0.00185853 -0.00631958 0.02005 -1.55112e-09 -3.32369e-09 -3.20348e-09 0.05 
1066 1 1 0.389398 0.287434 0.325034 0 0 0 -5.56009e-10 2.47435e-10 4.26131e-10 -0.000292902 0.00410535 0.00184297 -7.40875e-09 3.2498e-09 -6.18086e-10 0.05 
22 1 1 0.492551 0.297441 0.30617 0 0 0 -8.03633e-10 -1.43626e-09 -4.314e-09 -0.00190387 -0.000675208 -0.00209455 -1.72685e-08 2.29229e-08 6.79657e-10 0.05 
23 1 1 0.0499875 0.335617 0.32557 0 0 0 -8.93713e-11 1.80104e-10 5.26645e-10 -1.35646e-05 0.00056833 -0.00239128 -3.30737e-09 -1.77223e-09 -6.05096e-10 0.05 
1411 1 1 0.804602 0.403886 0.302041 0 0 0 -4.07535e-10 -1.34322e-09 -5.69412e-09 -0.00141185 -0.00145832 -0.000311338 -2.90852e-08 -3.96657e-08 -1.54121e-08 0.05 
1067 1 1 0.0544465 0.0499557 0.362925 0 0 0 0.000284602 -5.58061e-15 0.000133185 -3.33536e-18 3.41149e-12 -8.92918e-18 0.00266488 -0.00268964 -0.00569456 0.05 
716 1 1 0.259427 0.0499557 0.365579 0 0 0 -1.5994e-05 -8.14009e-15 -2.50809e-05 1.9004e-18 -2.72671e-12 -2.31171e-18 -0.000501841 0.000484328 0.000320021 0.05 
1064 1 1 0.362422 0.0498179 0.366411 0 0 0 -4.37148e-10 9.71311e-11 6.13892e-10 -0.00736869 -0.0123894 0.00663483 3.46365e-09 -1.57069e-09 7.03835e-09 0.05 
1415 1 1 0.634659 0.0498387 0.360357 0 0 0 -2.71421e-10 -4.72276e-10 -1.46896e-09 -0.00964436 0.00378075 -0.0170125 -1.12918e-08 -5.14253e-09 5.2217e-09 0.05 
1763 1 1 0.733478 0.0498999 0.384194 0 0 0 -2.74706e-10 -4.46198e-10 -9.68209e-10 0.0128619 -0.00745344 0.00409834 -1.11307e-08 -3.35339e-09 4.84125e-09 0.05 
720 1 1 0.0499877 0.152104 0.384485 0 0 0 -2.75937e-10 8.49142e-10 8.2993e-10 0.00812715 0.00220642 0.000835962 -3.19456e-09 -1.09421e-08 1.31563e-08 0.05 
1757 1 1 0.134837 0.131137 0.335954 0 0 0 1.70503e-10 8.03109e-10 1.75246e-09 0.00138778 0.0135469 -0.000802353 -1.16228e-08 4.73586e-10 5.20729e-09 0.05 
1068 1 1 0.231842 0.162374 0.355935 0 0 0 -4.45469e-10 5.65224e-11 1.74234e-09 -0.00168423 -0.00260943 -0.00295509 -1.21819e-08 7.46334e-10 1.36337e-08 0.05 
1412 1 1 0.56372 0.119663 0.369173 0 0 0 -7.60664e-10 -1.48831e-10 -1.5711e-09 0.00127886 -0.0045052 -0.00286192 5.1642e-09 1.54141e-08 -8.4997e-09 0.05 
1065 1 1 0.336185 0.208333 0.354939 0 0 0 -4.84468e-10 3.2501e-10 1.53917e-09 0.00738052 -0.00412869 -0.00916941 -7.09603e-10 -2.90161e-09 -4.06555e-09 0.05 
1413 1 1 0.668916 0.220453 0.334112 0 0 0 7.91579e-10 -1.41569e-09 -3.90814e-09 0.00160981 0.00925911 0.00426694 -1.26738e-08 -2.08989e-08 -2.94772e-09 0.05 
1417 1 1 0.0499383 0.255403 0.38523 0 0 0 -1.70031e-10 4.19331e-10 8.02483e-10 0.000769008 0.00618919 0.00625942 -1.54314e-09 -8.43494e-09 5.64404e-09 0.05 
1762 1 1 0.753951 0.264942 0.362043 0 0 0 1.48543e-09 -1.12287e-09 -2.44374e-09 -0.00113866 0.00503013 -0.00201616 -4.28795e-09 -1.31533e-08 4.40292e-09 0.05 
718 1 1 0.137373 0.29006 0.342434 0 0 0 -9.4195e-11 4.32933e-10 1.45831e-09 0.000106665 0.000746325 0.00973373 -1.55887e-08 -7.68988e-09 4.7191e-09 0.05 
370 1 1 0.58083 0.332308 0.344783 0 0 0 -8.91677e-10 -3.28031e-09 -6.42531e-09 -0.00366605 0.00201455 0.00107581 -1.21799e-08 2.03346e-08 3.6708e-09 0.05 
722 1 1 0.159256 0.385697 0.361546 0 0 0 -1.06748e-10 8.36448e-10 -5.73499e-09 0.000180307 0.000317357 -0.00220171 -1.40486e-07 2.23409e-09 -1.39336e-08 0.05 
371 1 1 0.251228 0.352326 0.340916 0 0 0 -8.66552e-11 4.06365e-10 1.88448e-10 -0.00311578 0.00204657 -0.00280277 -4.70121e-08 -3.74798e-08 1.44775e-08 0.05 
1070 1 1 0.353203 0.364121 0.377985 0 0 0 -1.75323e-10 7.1901e-10 1.87362e-09 -0.00020701 0.000495731 0.00184359 1.72547e-08 2.37268e-08 -4.76524e-09 0.05 
1063 1 1 0.699942 0.35485 0.347067 0 0 0 -1.22937e-10 -3.04717e-09 -5.81708e-09 -5.2204e-06 0.00265204 -0.000539426 1.44252e-08 -2.37862e-08 8.9949e-09 0.05 
368 1 1 0.157553 0.0497767 0.389034 0 0 0 2.77439e-10 5.27422e-10 1.44702e-09 0.0125024 0.012857 0.0271812 2.47957e-08 -1.04331e-08 -3.51399e-09 0.05 
719 1 1 0.555289 0.0498561 0.440115 0 0 0 -6.59179e-10 -3.59657e-10 -1.04731e-09 0.00233871 -0.00323607 -0.00957677 -1.13366e-08 -1.14933e-08 1.09788e-08 0.05 
372 1 1 0.463833 0.0800584 0.413278 0 0 0 -1.17698e-09 -2.40559e-10 -5.43054e-10 -0.00202024 0.00392841 0.000643361 4.86551e-09 1.01799e-08 -4.80662e-10 0.05 
24 1 1 0.186485 0.131104 0.439321 0 0 0 -1.59193e-10 1.21799e-09 2.57557e-09 0.00372496 -0.00649451 0.000853748 -2.30835e-08 -1.47201e-09 1.28466e-08 0.05 
1416 1 1 0.38259 0.138031 0.408643 0 0 0 -1.06238e-09 1.68231e-10 9.69863e-10 -0.00769916 0.00554169 0.00714908 3.5627e-09 -1.1896e-09 -2.48191e-09 0.05 
25 1 1 0.667445 0.138786 0.391672 0 0 0 -5.65697e-10 -1.01763e-09 -2.6622e-09 -0.00914063 -0.0127535 -0.0139087 -4.30043e-10 -1.226e-08 3.284e-09 0.05 
721 1 1 0.136771 0.208085 0.399538 0 0 0 -1.44133e-10 1.04422e-09 1.76504e-09 -0.0102395 0.00640837 -0.017619 2.13888e-09 -6.38556e-09 1.37588e-09 0.05 
29 1 1 0.228812 0.221441 0.444324 0 0 0 -6.91594e-10 1.97039e-09 2.47199e-09 -0.0025973 0.0047618 -0.0123779 1.64497e-08 -7.32119e-11 -1.41482e-08 0.05 
1764 1 1 0.495741 0.174638 0.417655 0 0 0 -1.25578e-09 -2.77233e-10 -1.0764e-09 0.00408679 -0.00234032 0.00607431 -3.52235e-09 -6.50508e-09 3.38692e-09 0.05 
1768 1 1 0.598058 0.204942 0.419764 0 0 0 -1.04962e-09 -1.21189e-09 -3.34004e-09 0.00687209 0.00845807 0.0082056 -9.00621e-09 1.03598e-08 -1.69895e-08 0.05 
1069 1 1 0.707267 0.21666 0.439922 0 0 0 -9.72164e-10 -1.44158e-09 -3.43301e-09 -0.000752862 -0.0165215 -0.0131653 -1.68106e-08 -8.75475e-10 6.41282e-09 0.05 
373 1 1 0.811025 0.191756 0.399197 0 0 0 1.87059e-09 -1.24835e-09 -5.75576e-10 -0.0108153 0.0039142 -0.00146638 2.69911e-08 -1.86006e-08 -2.26964e-08 0.05 
377 1 1 0.414486 0.232655 0.412351 0 0 0 -5.27708e-10 2.70048e-10 2.91069e-10 -0.000414137 0.00122111 -0.0031937 -5.22995e-09 4.37782e-09 -5.93982e-09 0.05 
725 1 1 0.524231 0.268049 0.396334 0 0 0 -4.39673e-10 -6.50745e-10 -3.32717e-09 0.000488885 -0.00219165 -0.00456127 -3.05461e-08 3.01119e-08 -2.09919e-08 0.05 
1769 1 1 0.19972 0.313096 0.417109 0 0 0 -6.8367e-10 2.74894e-09 1.75543e-09 -0.000118737 0.00207169 -0.000905515 -1.49631e-08 -1.61373e-08 1.0426e-08 0.05 
30 1 1 0.295086 0.286412 0.401977 0 0 0 -5.46911e-10 1.21631e-09 2.45338e-09 0.00710013 0.00532851 -0.00560416 -3.61178e-09 5.65615e-11 -7.06759e-09 0.05 
26 1 1 0.443776 0.327263 0.398815 0 0 0 -2.14526e-10 6.2177e-10 -1.17666e-09 0.00154444 -0.00427075 0.00543476 -1.95911e-08 3.13921e-08 -1.59046e-09 0.05 
1414 1 1 0.649486 0.289637 0.403584 0 0 0 -8.38327e-10 -2.37823e-09 -5.63428e-09 -0.00230172 -0.0068497 -0.000556199 -1.13593e-08 -1.51187e-08 -6.12386e-09 0.05 
726 1 1 0.0990444 0.333366 0.423987 0 0 0 -1.20625e-09 1.00209e-09 1.22236e-09 -0.00178268 -7.25533e-05 -0.00128767 -5.11794e-09 -8.26904e-09 1.99001e-08 0.05 
1418 1 1 0.529482 0.374329 0.419567 0 0 0 1.913e-09 -7.83266e-10 -7.29933e-09 0.00202823 9.58387e-05 -0.00287833 -6.52871e-08 3.76549e-08 -6.42428e-08 0.05 
1074 1 1 0.790182 0.358574 0.389959 0 0 0 -8.98808e-10 -8.07069e-10 -3.72452e-09 0.0036697 0.0025703 0.00336688 -1.81856e-08 -1.61782e-08 8.70624e-08 0.05 
1766 1 1 0.138227 0.0499455 0.487082 0 0 0 -1.43259e-10 1.46389e-10 6.81064e-10 8.88165e-06 -0.0132208 -0.00418297 -3.75145e-09 -3.4085e-09 5.67296e-10 0.05 
27 1 1 0.238967 0.0498557 0.464193 0 0 0 2.44735e-10 5.28331e-10 2.15068e-09 0.00419941 0.00304941 0.0112763 4.20763e-08 -2.07588e-09 -8.76643e-09 0.05 
375 1 1 0.339845 0.0498974 0.463694 0 0 0 -8.78141e-10 -1.26749e-10 7.72398e-10 0.00413311 -0.00659083 -0.0137397 8.21314e-09 -3.19681e-09 1.71397e-08 0.05 
723 1 1 0.663917 0.0498353 0.455908 0 0 0 -6.24021e-10 -2.79757e-10 -1.41762e-09 -0.0233464 0.00164994 0.00777881 -1.7928e-08 -1.76332e-09 1.3326e-08 0.05 
727 1 1 0.790146 0.0498068 0.495252 0 0 0 4.45271e-11 -5.73868e-10 -8.55939e-10 0.00950124 0.011259 0.0152443 -9.83114e-09 -7.15903e-09 1.54442e-09 0.05 
1071 1 1 0.0499477 0.0898461 0.462479 0 0 0 8.64851e-11 5.07457e-10 5.15944e-10 -0.00346243 0.00157598 -0.00923214 1.40547e-08 1.66679e-09 8.67492e-10 0.05 
1075 1 1 0.26946 0.138812 0.497971 0 0 0 -3.72277e-10 4.90462e-10 3.20692e-09 -0.0018021 0.00592093 0.00150928 -2.09715e-08 -7.65421e-09 1.84924e-08 0.05 
1767 1 1 0.563898 0.138236 0.485853 0 0 0 -1.55696e-09 -5.63313e-10 -2.06831e-09 -0.00195002 -0.00174257 0.00154193 -1.60531e-09 9.69065e-09 -1.61194e-09 0.05 
376 1 1 0.663539 0.143075 0.49149 0 0 0 -1.16333e-09 -1.04513e-09 -2.79424e-09 -0.0103627 -0.0149302 0.00829342 -2.42713e-10 2.69555e-09 -3.72595e-10 0.05 
724 1 1 0.750738 0.126866 0.445466 0 0 0 -2.5375e-10 -8.98898e-10 -1.86753e-09 0.0128917 -0.0139544 0.00634883 -1.09175e-09 -5.43595e-09 -1.75546e-09 0.05 
1072 1 1 0.0840518 0.182034 0.480386 0 0 0 4.53778e-11 7.67907e-10 1.57521e-09 0.00301313 -0.00382105 0.00973445 -6.47635e-10 -2.35632e-09 1.04047e-08 0.05 
1420 1 1 0.32729 0.207692 0.454438 0 0 0 -8.78448e-10 7.59697e-10 1.98673e-09 -0.00444231 -0.00622442 0.00844191 1.2774e-10 6.03187e-09 -1.95889e-09 0.05 
1424 1 1 0.141672 0.264094 0.482095 0 0 0 -3.25178e-10 1.6413e-09 2.08877e-09 0.0171432 -0.0107837 0.00534351 4.53698e-09 1.20786e-09 1.03662e-08 0.05 
728 1 1 0.513065 0.236089 0.494569 0 0 0 -1.90996e-09 -7.35639e-10 -1.93435e-09 0.0127972 -0.00969993 1.02488e-05 2.33435e-09 2.4831e-08 1.68129e-09 0.05 
378 1 1 0.370663 0.30728 0.46396 0 0 0 -5.33637e-10 1.36875e-09 2.14812e-09 -0.0018511 0.00211812 -0.000708064 7.05906e-10 8.14167e-09 -3.38016e-09 0.05 
1770 1 1 0.463385 0.322739 0.497962 0 0 0 -7.95567e-10 -7.64792e-11 9.22175e-10 -0.00382088 -0.002746 0.00206009 2.52289e-08 8.13284e-09 -2.35986e-08 0.05 
1073 1 1 0.580151 0.307076 0.473417 0 0 0 -1.01118e-09 -1.56939e-09 -5.15467e-09 -0.00324418 0.002172 0.00247885 -1.55914e-08 2.37299e-09 -2.07642e-08 0.05 
1765 1 1 0.777627 0.285489 0.456955 0 0 0 4.32286e-10 -1.68433e-09 -2.68303e-09 0.00178343 -0.00174346 -0.0055572 8.55916e-09 -1.4184e-08 -2.56416e-08 0.05 
1422 1 1 0.273884 0.369271 0.453726 0 0 0 -2.49519e-10 1.80838e-09 3.93121e-09 -0.00158031 -0.000829037 0.00159009 1.36906e-08 -1.70045e-08 -2.01675e-08 0.05 
374 1 1 0.707792 0.361316 0.44651 0 0 0 -2.83651e-09 -3.44633e-09 -6.27819e-09 0.00116754 0.00117492 0.00246967 -1.89093e-08 -2.72058e-08 8.64341e-09 0.05 
1426 1 1 0.0500149 0.0497908 0.553868 0 0 0 1.65835e-10 1.20668e-10 1.99739e-10 0.00923354 -0.0131741 -0.0166999 -4.76913e-10 -1.64734e-09 -3.51995e-09 0.05 
379 1 1 0.292915 0.0500784 0.551856 0 0 0 -6.65415e-10 6.28226e-10 1.25446e-09 -0.00173905 -0.00316997 -0.00332005 -2.67372e-08 9.76289e-09 -1.84921e-08 0.05 
1774 1 1 0.392837 0.0498403 0.555089 0 0 0 -7.36913e-10 -1.32152e-10 5.22342e-10 0.0131245 -0.00405841 -0.0205602 1.09451e-08 9.73241e-10 6.40972e-09 0.05 
31 1 1 0.480473 0.0498272 0.507032 0 0 0 -7.9627e-10 -3.42387e-12 -2.10207e-10 -0.0184381 -0.00487511 -0.00230998 -2.32727e-09 3.9589e-09 1.44943e-08 0.05 
730 1 1 0.586831 0.0499191 0.534923 0 0 0 -8.03769e-10 -3.55134e-10 -7.46114e-10 0.00360224 0.00405921 0.00179211 -1.26421e-09 7.36543e-11 4.67657e-09 0.05 
35 1 1 0.684777 0.0499267 0.554776 0 0 0 -3.97539e-10 -6.42041e-10 -1.11937e-09 0.00323178 -0.00544034 0.00142795 -1.4295e-08 1.24478e-08 -5.22122e-09 0.05 
1771 1 1 0.176106 0.131775 0.538701 0 0 0 -3.64992e-10 1.46803e-09 2.57005e-09 -0.00514885 0.0115223 -0.00432338 1.98847e-08 -5.47194e-09 5.27453e-09 0.05 
1419 1 1 0.369674 0.134541 0.507621 0 0 0 -1.28649e-09 2.60483e-10 1.36528e-09 -0.0137204 0.00835584 -0.00456369 2.86866e-09 8.67471e-09 -6.39379e-09 0.05 
1423 1 1 0.468396 0.148727 0.513245 0 0 0 -1.44823e-09 -3.49215e-10 -3.66008e-10 -0.00658927 0.00659982 -0.00778566 -4.43236e-09 1.85887e-08 -5.58386e-09 0.05 
731 1 1 0.753576 0.122396 0.553348 0 0 0 2.063e-10 -8.92459e-10 -1.62551e-09 -0.00269783 0.000156025 0.00193532 1.0772e-08 -3.29892e-09 -8.65171e-10 0.05 
380 1 1 0.319317 0.206297 0.555451 0 0 0 -6.33459e-10 7.39961e-10 2.66458e-09 0.00217122 -0.0123323 0.00808828 1.07084e-08 1.91136e-09 -9.09522e-09 0.05 
1076 1 1 0.794282 0.197405 0.501262 0 0 0 5.33019e-10 -1.28726e-09 -1.54154e-09 -0.00892323 0.00532694 -0.0019255 -4.99127e-09 1.14894e-08 5.47467e-10 0.05 
1772 1 1 0.0499383 0.266388 0.52176 0 0 0 -2.83178e-10 6.53146e-10 1.15584e-09 0.0086662 0.00791472 -0.00470045 -3.52017e-09 -1.06521e-08 7.27853e-09 0.05 