ITEM: TIMESTEP
0
ITEM: NUMBER OF ATOMS
2088
ITEM: BOX BOUNDS pp pp pp
0 5
0 0.5
0 1
ITEM: ATOMS id type type x y z ix iy iz vx vy vz fx fy fz omegax omegay omegaz radius 
1 1 1 0.14258 0.05 0.05 0 0 0 5.70141e-07 3.45938e-07 3.59734e-07 -3.84305e-06 8.08471e-06 3.35408e-07 8.02414e-06 -1.83648e-05 -3.17732e-06 0.05 
353 1 1 0.340916 0.05 0.05 0 0 0 2.91836e-07 -2.47208e-07 1.31081e-07 -1.25296e-05 5.93119e-08 -3.03712e-06 -1.20097e-05 -7.96279e-06 2.30249e-05 0.05 
1393 1 1 0.440917 0.0500184 0.0501664 0 0 0 -1.34613e-06 -1.26876e-06 2.79061e-06 0 0 0 6.15059e-05 -5.8028e-05 5.87944e-05 0.05 
697 1 1 0.699272 0.0502604 0.05 0 0 0 -1.96367e-05 6.11931e-06 7.00751e-07 0 0 0 -0.000116922 -0.000231708 0.000384474 0.05 
760 1 1 0.799261 0.0517764 0.0500367 0 0 0 -1.59951e-05 5.38485e-06 -1.53635e-06 0 0 0 -0.000137763 0.000267054 -0.000400706 0.05 
349 1 1 0.241748 0.0628576 0.0505928 0 0 0 -7.10913e-07 -4.02373e-07 -3.64221e-08 0 0 0 1.90765e-05 9.93541e-07 -1.19783e-05 0.05 
1744 1 1 0.520785 0.110187 0.0513404 0 0 0 -8.36403e-06 1.02251e-05 1.53349e-06 0 0 0 0.000219643 8.58331e-06 0.000234182 0.05 
350 1 1 0.183514 0.14415 0.0500013 0 0 0 1.44246e-06 7.03764e-08 -3.50441e-07 0 0 0 -1.74032e-05 4.17409e-06 -8.04957e-06 0.05 
1045 1 1 0.375237 0.143896 0.0523668 0 0 0 -4.15352e-06 1.11982e-06 -2.43531e-06 8.76627e-06 7.74773e-06 1.82619e-06 6.01161e-05 0.000279633 6.03012e-05 0.05 
1751 1 1 0.611094 0.153249 0.0513894 0 0 0 -1.13511e-05 1.31148e-05 -2.19671e-05 0 0 0 0.000561517 -8.85345e-05 -0.000197629 0.05 
65 1 1 0.711129 0.149588 0.05 0 0 0 -7.65361e-06 2.04924e-06 3.50483e-08 0 0 0 -3.8774e-05 -4.87079e-05 0.000108358 0.05 
62 1 1 0.811111 0.151503 0.05 0 0 0 -6.97836e-06 7.47903e-06 -1.67139e-06 -2.56914e-05 1.12701e-05 -6.04895e-05 -0.000163235 6.88046e-05 1.99117e-06 0.05 
1747 1 1 0.476502 0.199839 0.0500002 0 0 0 -7.91035e-06 1.42207e-05 4.15228e-07 0 0 0 -0.000208538 -0.000130169 -0.000261408 0.05 
351 1 1 0.183679 0.261222 0.05 0 0 0 -7.32129e-06 -2.14309e-06 -7.40995e-08 -1.45372e-06 2.71457e-06 -3.56999e-07 3.49445e-05 -0.000157364 -0.000110098 0.05 
1046 1 1 0.282179 0.243979 0.0507643 0 0 0 -7.79659e-06 -3.16902e-06 -6.56718e-07 3.33822e-06 -2.24965e-06 -1.80839e-07 0.000120907 0.000142955 8.40151e-05 0.05 
1394 1 1 0.382175 0.243627 0.05 0 0 0 -7.28148e-06 1.55543e-06 1.35098e-06 -4.29628e-06 -1.28694e-06 3.55434e-06 -4.11644e-05 -0.000135492 1.75866e-06 0.05 
1049 1 1 0.709581 0.249638 0.0500004 0 0 0 1.57199e-06 5.16168e-06 -2.45488e-06 -4.05109e-07 -2.35542e-07 -1.45918e-06 -0.000111327 7.87629e-05 0.000407858 0.05 
1457 1 1 0.83322 0.251303 0.05 0 0 0 -1.02593e-05 -6.13311e-06 2.96341e-07 0 0 0 0.000122314 -0.000208991 0.000176352 0.05 
1395 1 1 0.433702 0.32933 0.05 0 0 0 -4.50186e-06 2.89761e-07 1.59693e-07 8.88743e-06 4.42207e-06 1.09732e-05 -6.88797e-07 -8.85927e-05 -9.85565e-05 0.05 
1745 1 1 0.05 0.376834 0.05 0 0 0 1.75146e-07 -4.58383e-07 -1.41231e-07 -8.57752e-07 -1.20163e-06 2.86643e-06 -1.77271e-05 1.65983e-06 -1.01736e-05 0.05 
4 1 1 0.154901 0.356991 0.0500007 0 0 0 -2.50017e-06 -6.97002e-07 -5.67874e-07 1.51265e-05 -1.56203e-05 3.505e-06 1.07887e-05 -2.67013e-06 -3.62297e-05 0.05 
1047 1 1 0.336441 0.352572 0.0500012 0 0 0 -2.17276e-06 5.97651e-06 -4.76582e-09 0 0 0 -6.21781e-05 5.13238e-05 -2.94215e-05 0.05 
1743 1 1 0.591959 0.355018 0.0525795 0 0 0 1.49378e-05 -1.21336e-05 -8.95627e-05 0 0 0 0.00270567 0.00310143 0.000840926 0.05 
1397 1 1 0.698707 0.354161 0.0500205 0 0 0 2.4483e-06 -6.52699e-05 -1.29718e-06 0 0 0 0.00138785 6.56749e-05 -0.00492527 0.05 
1048 1 1 0.118167 0.45 0.05 0 0 0 -5.96243e-07 2.40008e-07 -6.92184e-08 -6.80489e-06 -3.68953e-06 -1.89331e-07 -1.30911e-06 -1.01888e-05 -2.0826e-06 0.05 
354 1 1 0.220572 0.444604 0.0503247 0 0 0 4.41763e-05 5.29889e-05 -1.67575e-06 0 0 0 -0.00228199 -0.00022986 0.00267882 0.05 
700 1 1 0.359306 0.449918 0.0534812 0 0 0 2.38803e-05 -4.36841e-06 -1.11248e-05 0 0 0 -0.000576409 -0.00709313 0.00124019 0.05 
352 1 1 0.552662 0.449688 0.0506741 0 0 0 -1.62067e-06 8.4911e-06 -4.40355e-06 0 0 0 0.0013595 -0.00510097 -0.00102119 0.05 
702 1 1 0.652648 0.44614 0.0500189 0 0 0 1.90634e-05 1.73041e-06 6.743e-06 0 0 0 -6.14364e-05 0.000362118 0.000409204 0.05 
1107 1 1 0.752601 0.449905 0.0500719 0 0 0 8.31956e-06 -1.37632e-05 -7.16454e-06 0 0 0 -0.000114771 -0.000465304 0.000123734 0.05 
2 1 1 0.599995 0.0500637 0.0620165 0 0 0 -1.52133e-05 -3.06952e-07 1.73357e-06 0 0 0 -0.000169622 9.95591e-05 -0.000482761 0.05 
1741 1 1 0.05 0.0806912 0.072069 0 0 0 -6.79366e-07 3.1032e-06 -3.96794e-06 3.8298e-06 -1.12469e-06 -1.30584e-06 -0.000505274 8.71922e-05 5.53173e-05 0.05 
5 1 1 0.277155 0.150066 0.0847557 0 0 0 5.35948e-06 -6.68797e-06 -7.5362e-06 0 0 0 3.25353e-05 -8.84992e-05 0.000143654 0.05 
704 1 1 0.110842 0.202789 0.0857809 0 0 0 -4.84377e-06 -6.29255e-06 -5.15442e-07 -1.8845e-06 -4.64918e-07 5.37838e-07 -0.000104079 8.40011e-05 0.000244564 0.05 
3 1 1 0.0501007 0.276573 0.0562473 0 0 0 -2.9091e-07 1.02949e-06 5.77292e-07 0 0 0 0.000313073 -0.000264561 -0.000558462 0.05 
1742 1 1 0.613907 0.249295 0.0790939 0 0 0 1.31864e-06 8.47276e-06 -3.89182e-06 0 0 0 -0.000252118 -0.000169198 -0.000355298 0.05 
701 1 1 0.521357 0.286488 0.071939 0 0 0 1.35891e-06 8.70811e-06 -6.6915e-06 0 0 0 0.000144695 0.000158935 0.000342136 0.05 
699 1 1 0.245201 0.335504 0.087205 0 0 0 -1.73467e-06 4.29626e-06 2.47252e-06 -6.77587e-09 2.17965e-06 -8.98155e-07 -7.79946e-05 -3.5752e-05 0.000100971 0.05 
1802 1 1 0.800396 0.345373 0.0591113 0 0 0 -2.26013e-05 -5.65929e-06 -2.30591e-05 0 0 0 0.0589988 0.00280293 0.00742183 0.05 
1396 1 1 0.456275 0.435617 0.0733777 0 0 0 1.98749e-06 5.08307e-05 4.42112e-05 0 0 0 0.000267309 0.00673266 -0.000273015 0.05 
1750 1 1 0.204746 0.0500015 0.14629 0 0 0 3.08525e-06 3.1005e-08 -5.71797e-06 0 0 0 -8.38834e-07 -0.000109381 -0.00014298 0.05 
7 1 1 0.304723 0.0500131 0.148694 0 0 0 5.09252e-06 6.05758e-07 -1.6932e-06 0 0 0 -9.23032e-05 -1.44671e-05 3.28792e-05 0.05 
1050 1 1 0.404746 0.05 0.145979 0 0 0 3.31332e-06 1.69985e-06 -1.0225e-05 0 0 0 -0.00019699 8.60103e-05 -5.8387e-05 0.05 
11 1 1 0.506705 0.0508542 0.130604 0 0 0 3.00239e-05 -2.20299e-05 -1.13483e-05 0 0 0 -0.000799823 0.0038112 -0.000681041 0.05 
1398 1 1 0.660126 0.05 0.142019 0 0 0 -1.66593e-05 -1.33554e-06 -4.51951e-07 1.69915e-05 4.25972e-05 -8.87303e-06 -2.41845e-05 0.000291645 0.000304182 0.05 
703 1 1 0.127613 0.110924 0.127873 0 0 0 1.28475e-06 8.71363e-08 1.99892e-07 -1.8418e-06 -1.99875e-05 -9.1699e-06 -4.54029e-05 0.000189357 0.000132863 0.05 
763 1 1 0.758162 0.0735182 0.139888 0 0 0 1.34158e-05 -5.19645e-05 2.13709e-05 0 0 0 -0.00034449 -0.00107098 -0.000580981 0.05 
1399 1 1 0.350713 0.138778 0.151773 0 0 0 3.3653e-06 1.01737e-06 8.44106e-06 0 0 0 0.00057684 0.000388042 -2.4906e-05 0.05 
8 1 1 0.446331 0.137842 0.122431 0 0 0 -2.64142e-06 3.7311e-06 -5.28476e-06 -4.35816e-07 -2.86304e-07 -6.6101e-07 0.000274306 -0.000245291 0.00022644 0.05 
355 1 1 0.584104 0.114951 0.140592 0 0 0 -1.48856e-05 1.10284e-06 -7.59239e-06 0 0 0 -8.42578e-05 -3.8727e-05 -0.000170756 0.05 
68 1 1 0.696877 0.155078 0.148827 0 0 0 -7.36028e-07 4.38986e-07 5.70951e-07 0 0 0 0.00011609 0.000133943 -0.000382923 0.05 
707 1 1 0.05 0.16704 0.156635 0 0 0 6.64545e-09 -4.62302e-06 4.14247e-06 1.75588e-05 3.03158e-06 -7.29676e-06 -8.58986e-05 -6.0977e-05 -8.33731e-05 0.05 
1052 1 1 0.176273 0.19164 0.161299 0 0 0 -7.82886e-07 3.44452e-06 -4.70757e-06 1.96721e-06 2.02995e-05 9.50986e-06 0.000104768 7.29599e-05 9.83732e-05 0.05 
356 1 1 0.531305 0.19962 0.133646 0 0 0 -1.28461e-05 2.47643e-06 3.47203e-06 0 0 0 0.000105077 2.16198e-05 -3.9028e-05 0.05 
698 1 1 0.242254 0.266767 0.159777 0 0 0 -5.3793e-06 6.95158e-06 4.09533e-06 6.77587e-09 -2.17965e-06 8.98155e-07 4.43241e-05 -0.000123851 -3.56058e-05 0.05 
1400 1 1 0.338908 0.250565 0.139888 0 0 0 -7.88131e-06 -3.69028e-06 8.88178e-07 -4.15627e-06 -3.14841e-06 -2.82592e-07 0.000189982 0.000146154 -0.000166504 0.05 
1053 1 1 0.437987 0.238237 0.133919 0 0 0 -3.80016e-06 2.42066e-05 -4.07023e-06 0 0 0 0.000133505 8.90482e-06 0.000759379 0.05 
1801 1 1 0.770973 0.275604 0.124544 0 0 0 -7.66914e-06 1.30772e-05 4.76863e-06 4.05109e-07 2.35542e-07 1.45918e-06 0.000332288 -0.000170207 0.000103154 0.05 
9 1 1 0.0500001 0.279614 0.160415 0 0 0 -2.69541e-07 -2.26348e-06 -3.29823e-06 0 0 0 -5.32037e-05 5.94673e-05 -5.2097e-05 0.05 
360 1 1 0.101267 0.361459 0.134471 0 0 0 -8.47612e-07 -1.55551e-06 -2.35116e-07 0 0 0 0.000125056 -4.62788e-05 5.51301e-05 0.05 
705 1 1 0.387202 0.338127 0.139114 0 0 0 -3.29256e-06 -5.66112e-06 2.63917e-06 5.50303e-06 3.50886e-06 -1.47328e-07 -9.36035e-05 -4.39198e-05 6.65459e-05 0.05 
6 1 1 0.484757 0.358506 0.130884 0 0 0 -4.89763e-06 -1.31464e-06 9.42953e-07 -2.67441e-05 3.46678e-06 2.0569e-06 -3.7935e-06 5.7424e-05 3.04882e-05 0.05 
10 1 1 0.655024 0.347321 0.139736 0 0 0 5.85108e-06 1.51601e-05 9.58312e-06 0 0 0 -0.00134185 0.000339757 0.00113357 0.05 
69 1 1 0.760412 0.400291 0.136565 0 0 0 -1.13163e-06 4.03982e-06 1.81594e-06 0 0 0 -0.000291501 3.92372e-05 0.000145052 0.05 
13 1 1 0.0572386 0.449543 0.152633 0 0 0 1.6928e-05 -7.8265e-06 7.79643e-05 0 0 0 2.25087e-05 0.00104635 -0.00110186 0.05 
1402 1 1 0.166366 0.449999 0.137618 0 0 0 -3.26133e-06 6.493e-07 1.26035e-06 -3.40556e-06 -5.86546e-06 1.87052e-06 3.6586e-05 -5.09258e-05 7.38975e-05 0.05 
709 1 1 0.288946 0.448868 0.125278 0 0 0 3.45228e-05 -3.84557e-06 2.95579e-05 0 0 0 0.00241029 0.0014279 -0.00370697 0.05 
706 1 1 0.512867 0.45 0.159844 0 0 0 -3.44901e-06 -5.38611e-07 -1.36962e-06 6.38812e-07 -4.07966e-06 1.72112e-06 4.56407e-06 -3.60349e-05 -6.05072e-05 0.05 
1054 1 1 0.611054 0.45 0.140876 0 0 0 -4.04651e-06 -2.65369e-08 -4.00676e-06 2.96257e-05 -5.32788e-05 2.44994e-05 7.20256e-05 3.09579e-05 -7.9952e-05 0.05 
1746 1 1 0.0501574 0.0638037 0.17065 0 0 0 -4.99609e-06 8.84051e-06 -2.10842e-06 0 0 0 0.000454569 -0.000142934 0.000289751 0.05 
1051 1 1 0.254976 0.133073 0.180875 0 0 0 -5.54613e-06 -9.4943e-06 -5.58933e-06 0 0 0 6.05352e-05 -0.000107796 -0.000178306 0.05 
1403 1 1 0.506672 0.130773 0.201861 0 0 0 -8.61163e-06 -3.26731e-06 -3.44635e-08 4.35816e-07 2.86304e-07 6.6101e-07 7.60752e-05 4.92473e-05 6.48507e-05 0.05 
12 1 1 0.102649 0.22119 0.222179 0 0 0 4.53663e-07 5.09223e-07 -1.61495e-07 0 0 0 -0.000122357 6.22557e-05 -3.18333e-05 0.05 
15 1 1 0.619202 0.183957 0.204797 0 0 0 -3.40494e-06 6.3272e-07 -1.74594e-06 0 0 0 0.000160273 -0.000310102 0.000174507 0.05 
1112 1 1 0.792842 0.202744 0.189453 0 0 0 -1.04712e-05 -7.77895e-08 -6.71762e-06 6.15885e-05 6.37147e-05 -4.46138e-05 6.08158e-05 -6.43188e-05 5.44271e-05 0.05 
366 1 1 0.587049 0.272977 0.172522 0 0 0 -6.98167e-06 4.45095e-08 -5.75558e-08 0 0 0 -5.16403e-05 0.000162441 -2.27252e-05 0.05 
1748 1 1 0.684814 0.252158 0.169565 0 0 0 -7.85172e-06 4.10375e-07 -3.21649e-06 0 0 0 -0.000222638 -2.1591e-06 4.93333e-05 0.05 
1755 1 1 0.48999 0.289007 0.202625 0 0 0 -1.08874e-05 -7.96226e-06 -5.35545e-06 0 0 0 -3.03631e-05 -0.000188247 6.05983e-05 0.05 
364 1 1 0.05 0.371563 0.219733 0 0 0 -4.72139e-07 -2.32207e-06 5.09982e-07 0 0 0 -0.000131676 -1.31218e-05 -4.77261e-05 0.05 
357 1 1 0.194458 0.359911 0.170708 0 0 0 -1.79161e-06 1.93275e-06 4.27316e-06 0 0 0 -8.13723e-05 -5.04095e-05 3.03881e-05 0.05 
1749 1 1 0.29434 0.355246 0.172032 0 0 0 -1.11623e-06 -2.77696e-06 4.16105e-06 -1.34676e-06 -3.60449e-07 4.2992e-07 0.000246983 5.43177e-05 -0.000131701 0.05 
1401 1 1 0.568501 0.370546 0.184193 0 0 0 -3.68841e-06 6.33682e-07 -1.52557e-06 5.99804e-06 -1.12744e-05 -2.74349e-06 -1.6577e-05 -3.49972e-06 -1.24874e-05 0.05 
1057 1 1 0.68694 0.423428 0.200334 0 0 0 -4.89145e-06 1.21095e-06 -1.615e-06 8.92928e-07 1.07868e-05 -1.96065e-06 9.17814e-05 -0.000112894 0.000165179 0.05 
361 1 1 0.23541 0.449997 0.209957 0 0 0 -3.69815e-06 2.03353e-06 2.47092e-06 -1.57569e-06 2.06666e-06 3.59138e-07 -1.96658e-05 2.71433e-05 -1.5941e-05 0.05 
358 1 1 0.407731 0.448695 0.180273 0 0 0 -7.39302e-05 4.23178e-05 2.36534e-05 0 0 0 -0.0361806 -0.01589 0.0028836 0.05 
1405 1 1 0.0577597 0.0500812 0.26942 0 0 0 -7.13408e-07 -1.64272e-06 -3.50894e-06 0 0 0 -0.000192322 7.61426e-05 0.000735944 0.05 
710 1 1 0.24841 0.0500002 0.236255 0 0 0 -1.82845e-06 -6.29227e-07 -3.01131e-06 0 0 0 -2.00262e-05 2.91199e-05 -9.44395e-06 0.05 
1753 1 1 0.348403 0.0503521 0.23941 0 0 0 -1.5751e-06 2.42615e-06 8.69276e-06 0 0 0 0.0202024 0.000302272 9.78654e-05 0.05 
14 1 1 0.448346 0.0500006 0.236006 0 0 0 -1.64939e-06 4.04691e-07 -8.52127e-06 0 0 0 -0.000121268 -0.000411646 7.47892e-06 0.05 
713 1 1 0.548076 0.05 0.243831 0 0 0 -5.8305e-06 6.86097e-08 1.71385e-06 0 0 0 3.31933e-05 -0.000275808 0.000121104 0.05 
1114 1 1 0.67501 0.0983947 0.228255 0 0 0 -5.95811e-06 -8.71518e-07 -1.13528e-06 0 0 0 5.71846e-05 9.12882e-05 -0.00010628 0.05 
1055 1 1 0.121921 0.116158 0.227574 0 0 0 2.57104e-06 1.57478e-06 6.5983e-07 5.73396e-06 -5.64217e-07 -6.10769e-06 8.40344e-06 -0.000156432 -2.53415e-05 0.05 
1410 1 1 0.200892 0.153269 0.276425 0 0 0 -1.46692e-07 1.25768e-06 3.73064e-06 0 0 0 1.24074e-05 0.000119306 1.13118e-05 0.05 
359 1 1 0.413512 0.157023 0.227437 0 0 0 -3.89627e-06 1.41364e-05 1.34843e-05 0 0 0 -0.00112146 -0.000676019 -0.000238679 0.05 
73 1 1 0.767899 0.127796 0.250778 0 0 0 -2.71237e-06 -3.35771e-06 -8.75146e-06 -6.15885e-05 -6.37147e-05 4.46138e-05 1.91648e-05 0.000126536 3.63822e-05 0.05 
1754 1 1 0.310742 0.204123 0.223851 0 0 0 -1.19703e-05 4.07092e-06 -8.67699e-07 0 0 0 -0.000148181 -7.84122e-05 0.000238177 0.05 
1406 1 1 0.507863 0.210563 0.262127 0 0 0 -1.08828e-05 -3.38405e-06 1.06865e-06 3.02475e-06 -1.10748e-05 -7.33185e-06 -3.80054e-05 5.5278e-05 5.00496e-05 0.05 
1813 1 1 0.702966 0.203686 0.255733 0 0 0 -4.14411e-06 -4.84853e-06 5.99974e-07 0 0 0 5.03209e-05 0.000152385 -9.18741e-07 0.05 
1407 1 1 0.195748 0.248517 0.246403 0 0 0 5.45018e-07 1.95064e-06 4.91005e-06 0 0 0 3.98568e-05 -7.92172e-05 -5.77489e-05 0.05 
363 1 1 0.395156 0.257721 0.222258 0 0 0 -8.30164e-06 -1.61322e-06 1.24117e-06 0 0 0 -0.000128391 -0.000162094 -0.000230236 0.05 
1758 1 1 0.592925 0.262665 0.271816 0 0 0 -1.09554e-05 -4.15115e-06 8.44677e-07 0 0 0 3.78021e-05 -0.000183004 -4.7817e-05 0.05 
1062 1 1 0.0500001 0.288027 0.274724 0 0 0 -1.46901e-07 -2.27602e-06 2.45078e-06 0 0 0 0.000181349 -4.16843e-05 -4.32436e-05 0.05 
712 1 1 0.136591 0.329143 0.246239 0 0 0 3.79394e-07 5.09978e-07 5.97518e-06 0 0 0 2.27776e-05 5.66786e-05 3.21414e-05 0.05 
367 1 1 0.305814 0.299628 0.254342 0 0 0 -3.3967e-06 -1.62172e-05 -3.70124e-06 0 0 0 -1.1765e-05 0.000253819 -0.000342345 0.05 
1059 1 1 0.757886 0.289571 0.226669 0 0 0 -5.29129e-06 2.51371e-07 -4.48842e-06 0 0 0 6.52517e-05 -4.94319e-05 -0.000152834 0.05 
1060 1 1 0.371922 0.371572 0.233039 0 0 0 -3.62993e-06 -1.01473e-05 1.16031e-05 0 0 0 0.000717375 2.68064e-05 0.000244968 0.05 
1056 1 1 0.470859 0.384533 0.226432 0 0 0 -4.94172e-06 -2.54688e-06 1.16138e-06 -5.91261e-06 -1.4501e-06 9.26215e-06 4.4561e-05 -8.86127e-05 -8.17519e-05 0.05 
16 1 1 0.646291 0.340941 0.239621 0 0 0 -4.02318e-06 -2.04891e-06 -2.0657e-06 1.28156e-05 1.46831e-05 -3.23856e-06 -8.43877e-05 5.26632e-05 -0.00011258 0.05 
767 1 1 0.829608 0.358715 0.263681 0 0 0 -5.1125e-06 1.74526e-07 -2.49977e-06 4.46911e-05 -1.97826e-06 9.95813e-06 -0.00010999 -8.02953e-06 -9.50022e-05 0.05 
1759 1 1 0.13567 0.436756 0.231865 0 0 0 -1.37402e-05 -4.8218e-05 -8.02916e-06 0 0 0 -0.000130277 0.000179352 -0.000957291 0.05 
1408 1 1 0.318792 0.449995 0.265162 0 0 0 -2.68883e-06 1.80671e-06 1.11682e-06 4.38856e-06 -1.49231e-06 5.93081e-06 3.95354e-05 9.65193e-06 2.59373e-05 0.05 
20 1 1 0.541086 0.449553 0.255779 0 0 0 -6.26882e-06 -4.47726e-07 -2.13198e-06 0 0 0 5.28384e-05 -2.19451e-08 0.000195266 0.05 
1113 1 1 0.775082 0.45 0.239387 0 0 0 -7.31527e-06 2.94139e-07 -3.73373e-06 4.88302e-08 -1.20031e-07 -2.30895e-08 0.00016695 0.000230769 4.88399e-05 0.05 
17 1 1 0.163844 0.05 0.289747 0 0 0 1.33813e-06 6.20851e-08 -1.07554e-06 0 0 0 -1.29212e-05 0.000106094 -2.30268e-05 0.05 
1061 1 1 0.628954 0.0500001 0.302665 0 0 0 -5.10261e-06 -6.45447e-08 2.31772e-07 0 0 0 -1.19247e-05 -9.29154e-05 9.8027e-05 0.05 
1119 1 1 0.767514 0.05 0.313608 0 0 0 -2.24379e-06 5.30261e-08 -5.02997e-06 2.44949e-06 -1.71884e-05 -6.0921e-06 -9.4304e-05 0.000112174 3.98152e-05 0.05 
1409 1 1 0.05 0.160146 0.281355 0 0 0 9.29653e-07 -2.26227e-07 -1.75119e-06 -5.73396e-06 5.64217e-07 6.10769e-06 0.000105589 4.72161e-05 -7.84902e-07 0.05 
21 1 1 0.296455 0.124464 0.282592 0 0 0 1.72688e-07 -2.18584e-06 -4.42033e-07 0 0 0 2.84103e-05 -7.89617e-05 -2.54317e-05 0.05 
18 1 1 0.386383 0.142069 0.322666 0 0 0 -4.93183e-06 6.85754e-06 -3.36477e-06 0 0 0 -0.000182056 3.76459e-05 0.000295011 0.05 
1058 1 1 0.48108 0.121144 0.298203 0 0 0 -2.98751e-06 -1.62729e-06 -4.27256e-06 0 0 0 0.000200445 0.000365857 -1.68543e-05 0.05 
362 1 1 0.580998 0.135651 0.283581 0 0 0 -2.69144e-06 7.80234e-08 -2.87244e-06 0 0 0 -0.000133236 0.000315987 -0.000169898 0.05 
1760 1 1 0.684212 0.131009 0.322338 0 0 0 -2.36851e-06 -8.80367e-06 2.19931e-06 0 0 0 0.000138727 2.6271e-05 0.000218932 0.05 
74 1 1 0.802673 0.207745 0.300003 0 0 0 -6.18537e-06 -4.57925e-06 -2.19908e-07 0 0 0 -0.000142138 -6.30588e-05 0.00021243 0.05 
717 1 1 0.114686 0.225107 0.321374 0 0 0 1.65369e-06 -7.71001e-07 -5.56412e-07 0 0 0 0.000139991 -2.43126e-05 5.24865e-05 0.05 
1065 1 1 0.262952 0.237114 0.319571 0 0 0 -5.30945e-07 -7.85192e-06 3.89993e-06 0 0 0 -6.56663e-05 4.4274e-05 9.70735e-05 0.05 
714 1 1 0.362495 0.247187 0.318647 0 0 0 -3.24924e-06 3.49589e-05 3.07866e-05 0 0 0 5.27971e-06 -0.000338017 0.000182784 0.05 
711 1 1 0.438626 0.315556 0.291295 0 0 0 -3.68504e-06 2.26855e-06 -6.59309e-06 0 0 0 -5.55771e-05 3.76363e-05 -5.86482e-05 0.05 
19 1 1 0.68482 0.28411 0.312325 0 0 0 -8.84594e-06 -3.54716e-06 -1.63546e-06 -1.03441e-05 -1.78847e-06 8.48193e-06 2.74852e-05 -1.51989e-05 -0.000114356 0.05 
718 1 1 0.0922655 0.360071 0.332026 0 0 0 -2.96506e-05 1.65586e-05 6.17344e-06 0 0 0 -0.000412659 -0.000490626 0.00124856 0.05 
708 1 1 0.208137 0.388148 0.283651 0 0 0 1.78519e-06 7.60433e-07 3.2332e-06 0 0 0 5.11698e-05 0.000132434 1.69363e-05 0.05 
1752 1 1 0.548468 0.351869 0.280375 0 0 0 -4.94907e-06 -6.43294e-06 -1.32353e-06 -1.62501e-05 4.59629e-06 -7.15455e-06 -2.39994e-05 0.00012117 3.92654e-06 0.05 
1404 1 1 0.732027 0.367552 0.28368 0 0 0 -4.69491e-06 -8.04252e-07 -3.42156e-06 -4.46911e-05 1.97826e-06 -9.95813e-06 -3.43976e-05 -2.4588e-05 0.000146195 0.05 
23 1 1 0.0500209 0.45 0.281769 0 0 0 -7.40418e-06 -1.16957e-07 3.34582e-07 0 0 0 -1.71348e-05 6.74009e-05 -4.43295e-05 0.05 
722 1 1 0.136548 0.449976 0.331917 0 0 0 1.88401e-06 -1.6989e-06 -6.06579e-06 0 0 0 0.000131995 6.68107e-05 5.40445e-05 0.05 
715 1 1 0.417664 0.45 0.280138 0 0 0 -2.60072e-06 -1.44545e-07 1.28443e-07 -1.75059e-06 7.99594e-06 -9.85649e-06 -7.15093e-07 1.05607e-05 -6.09276e-05 0.05 
1756 1 1 0.637313 0.449999 0.282987 0 0 0 -7.05693e-06 -2.45843e-07 -1.57349e-06 0 0 0 -5.08106e-05 8.29956e-05 -0.000190765 0.05 
1064 1 1 0.32836 0.0552571 0.371433 0 0 0 1.50095e-05 -9.36862e-06 3.7439e-06 0 0 0 0.000999484 -2.51184e-05 -0.00174075 0.05 
365 1 1 0.422489 0.0500124 0.337637 0 0 0 -1.32507e-05 1.09489e-06 -2.03545e-06 0 0 0 -4.17667e-05 3.25815e-05 0.000228449 0.05 
1415 1 1 0.53499 0.0503354 0.348855 0 0 0 -0.000119976 -1.1925e-05 0.000119108 0 0 0 -0.00619736 0.0130553 0.00186936 0.05 
1763 1 1 0.692224 0.0500195 0.380473 0 0 0 1.84206e-05 9.73452e-06 2.08865e-06 0 0 0 0.00017201 -0.000238045 -0.000382867 0.05 
1067 1 1 0.0500145 0.0660634 0.367858 0 0 0 3.66697e-07 2.17152e-06 -2.5165e-06 0 0 0 5.75406e-05 7.65102e-05 4.96406e-05 0.05 
716 1 1 0.233866 0.0832957 0.353327 0 0 0 5.22798e-06 6.87163e-07 -1.70931e-05 0 0 0 9.66095e-05 -0.000451594 0.000939739 0.05 
1757 1 1 0.124395 0.127245 0.339517 0 0 0 -1.28137e-06 -1.19036e-06 -4.04117e-07 -4.31757e-06 -3.30586e-06 -3.31191e-06 9.643e-06 -0.000105648 8.18234e-05 0.05 
1416 1 1 0.30352 0.163852 0.374237 0 0 0 -2.5477e-06 -9.18252e-06 1.8988e-06 0 0 0 0.00029812 0.000135913 3.33905e-05 0.05 
724 1 1 0.608833 0.115771 0.387275 0 0 0 0.000109561 5.10436e-05 8.17343e-05 0 0 0 0.0357758 -0.0108163 -0.031098 0.05 
76 1 1 0.786499 0.130304 0.370095 0 0 0 -2.92508e-06 2.11045e-07 -4.82913e-06 -1.16489e-05 1.57015e-05 -6.12159e-06 0.000109225 1.26203e-05 9.57138e-05 0.05 
720 1 1 0.0500008 0.180289 0.383076 0 0 0 -1.02785e-08 -2.87056e-06 -2.86049e-06 0 0 0 -7.08623e-05 -9.72115e-06 -6.15924e-05 0.05 
1068 1 1 0.204352 0.176708 0.373582 0 0 0 -2.34621e-06 -3.15615e-06 6.75582e-06 4.31757e-06 3.30586e-06 3.31191e-06 -1.61225e-05 -8.46192e-05 -0.000138962 0.05 
369 1 1 0.439574 0.211123 0.371683 0 0 0 -2.55469e-06 -3.34195e-06 1.38463e-05 0 0 0 0.000828679 0.000215112 -0.000312392 0.05 
25 1 1 0.533735 0.17952 0.360012 0 0 0 -4.53308e-06 -2.32885e-06 -9.32663e-07 1.84622e-06 2.21401e-06 -1.47901e-06 0.000125722 -0.000240796 0.000358413 0.05 
373 1 1 0.628242 0.210518 0.349526 0 0 0 -7.7813e-06 -3.94436e-06 1.7542e-06 0 0 0 -8.39196e-05 2.11262e-06 0.000118589 0.05 
1822 1 1 0.726992 0.210529 0.365309 0 0 0 -8.73484e-06 -3.7701e-06 -4.89108e-07 1.22085e-05 -2.11841e-05 2.42584e-06 -9.49294e-05 0.000111044 3.74776e-05 0.05 
1413 1 1 0.517876 0.275631 0.3374 0 0 0 -1.00117e-05 -3.84724e-06 9.99374e-07 -3.02475e-06 1.10748e-05 7.33185e-06 3.04648e-05 -0.000117178 -0.000144956 0.05 
1417 1 1 0.0500006 0.279927 0.374396 0 0 0 9.23505e-07 -5.88357e-06 2.16669e-06 0 0 0 -5.03483e-05 -6.55395e-05 -6.72802e-05 0.05 
1761 1 1 0.184509 0.288803 0.354048 0 0 0 -2.87868e-06 2.59148e-06 5.10927e-06 0 0 0 -4.10043e-05 -2.70927e-05 8.25034e-05 0.05 
1120 1 1 0.780756 0.297916 0.337623 0 0 0 1.51558e-06 -7.44179e-06 6.22603e-07 0 0 0 -0.000242671 -0.000248966 -0.000337828 0.05 
1769 1 1 0.192686 0.384361 0.382378 0 0 0 -3.0875e-06 2.32015e-06 2.31732e-06 1.90208e-06 5.68719e-07 -1.73674e-06 -7.32896e-05 -0.000208367 3.28145e-05 0.05 
1066 1 1 0.271564 0.336236 0.340943 0 0 0 -8.42139e-07 -1.88714e-06 5.24201e-06 0 0 0 -0.000134551 -9.13851e-05 -0.00014621 0.05 
22 1 1 0.368405 0.360552 0.346471 0 0 0 -1.05793e-06 -1.75692e-06 -1.11077e-07 -1.54522e-07 -4.62057e-07 -4.53888e-07 3.25185e-05 0.000167659 0.000163597 0.05 
1762 1 1 0.630894 0.365096 0.335431 0 0 0 -6.48116e-06 1.54942e-07 -3.87674e-06 2.6033e-06 1.4275e-06 1.89247e-06 1.96533e-05 -6.47919e-05 9.5423e-05 0.05 
1469 1 1 0.718484 0.366203 0.383666 0 0 0 -8.00201e-06 1.52259e-06 6.18458e-07 -4.69866e-06 5.54675e-06 -4.55166e-06 4.56571e-06 -2.72476e-05 -8.09689e-05 0.05 
726 1 1 0.0500007 0.438088 0.381057 0 0 0 -2.99771e-07 6.91596e-07 4.61361e-07 0 0 0 -6.63505e-05 -1.34177e-05 8.72186e-06 0.05 
370 1 1 0.474954 0.39476 0.340688 0 0 0 -9.66458e-06 -5.4928e-06 1.20426e-06 8.89027e-07 -3.58459e-06 8.63527e-06 -4.5283e-05 -6.40439e-05 -0.000154654 0.05 
1118 1 1 0.830997 0.406557 0.3734 0 0 0 -8.33573e-06 2.05101e-06 2.0747e-06 1.55917e-06 -1.43531e-06 5.33513e-08 -0.000431854 8.17235e-05 -2.80787e-05 0.05 
371 1 1 0.257939 0.45 0.344515 0 0 0 -5.11093e-07 2.77537e-07 3.25034e-06 0 0 0 -3.14698e-05 4.76973e-05 1.31035e-05 0.05 
26 1 1 0.400466 0.44964 0.378647 0 0 0 -4.60844e-06 7.49138e-08 -9.37825e-07 1.54522e-07 4.62057e-07 4.53888e-07 1.46775e-05 2.00388e-05 -1.28222e-05 0.05 
1063 1 1 0.561673 0.449764 0.353637 0 0 0 -2.2129e-06 1.37577e-06 -2.3845e-06 0 0 0 -3.47069e-05 3.71608e-05 4.99262e-05 0.05 
1411 1 1 0.6579 0.45 0.380845 0 0 0 -3.30688e-06 5.13566e-09 -1.85034e-06 0 0 0 -2.82393e-05 -4.28145e-05 -7.40652e-05 0.05 
420 1 1 0.748215 0.45 0.337905 0 0 0 -8.07202e-06 7.65727e-07 -3.30809e-06 -1.55917e-06 1.43531e-06 -5.33513e-08 2.36004e-05 1.26851e-05 -0.000100759 0.05 
368 1 1 0.149742 0.0500001 0.397748 0 0 0 2.8489e-06 -1.30305e-07 -3.91633e-07 0 0 0 -2.48731e-05 0.000168879 -5.01649e-05 0.05 
372 1 1 0.376562 0.124115 0.429788 0 0 0 -1.69314e-07 -1.2851e-05 -2.73474e-06 0 0 0 -0.000112174 -6.02438e-05 -1.42224e-06 0.05 
1412 1 1 0.471052 0.11222 0.399276 0 0 0 -6.59848e-07 -1.1454e-05 -9.29478e-06 -1.84622e-06 -2.21401e-06 1.47901e-06 -0.000264672 -0.000189093 8.87485e-06 0.05 
28 1 1 0.707721 0.134699 0.431547 0 0 0 -2.4656e-06 -3.20034e-07 -1.54469e-06 0 0 0 -0.000156678 0.000211016 4.03938e-05 0.05 
1474 1 1 0.819983 0.219312 0.401022 0 0 0 -7.91647e-06 -1.10843e-06 -1.67793e-06 0 0 0 -3.85742e-06 -0.000101197 -3.69565e-05 0.05 
721 1 1 0.133192 0.228751 0.420782 0 0 0 -6.39158e-07 -1.40853e-06 -9.03617e-08 0 0 0 1.64127e-05 2.96993e-05 -5.98475e-05 0.05 
377 1 1 0.308795 0.267322 0.403159 0 0 0 -6.83702e-06 -5.43158e-06 3.48933e-06 0 0 0 0.000204763 2.59233e-05 -0.000457212 0.05 
1069 1 1 0.569959 0.25196 0.419427 0 0 0 -1.02446e-05 -1.20353e-06 -1.537e-06 0 0 0 -0.000177391 0.000109125 -3.22008e-05 0.05 
80 1 1 0.668177 0.270758 0.419283 0 0 0 -9.81941e-06 -2.05012e-06 -2.27275e-06 1.08827e-05 -1.12522e-05 -1.73377e-07 -3.07535e-05 -4.86027e-05 3.6245e-05 0.05 
1424 1 1 0.12177 0.328017 0.424761 0 0 0 -2.20459e-06 -8.834e-07 -3.37466e-08 -1.90208e-06 -5.68719e-07 1.73674e-06 2.11059e-05 0.000110177 7.29302e-05 0.05 
725 1 1 0.441146 0.309005 0.39216 0 0 0 -3.82178e-06 2.26149e-07 7.71786e-06 0 0 0 -0.000905239 0.000678409 0.000691005 0.05 
779 1 1 0.763894 0.294251 0.43621 0 0 0 -9.92585e-06 -3.21863e-06 -3.60923e-06 9.92089e-06 -1.05955e-05 9.99665e-06 9.20679e-05 6.02286e-05 -6.47635e-06 0.05 
30 1 1 0.273428 0.362903 0.437335 0 0 0 -2.72026e-06 3.77084e-07 2.97554e-06 0 0 0 0.0002295 0.000174151 2.63153e-05 0.05 
1414 1 1 0.539885 0.349132 0.401533 0 0 0 -1.04212e-05 -5.17923e-06 2.44788e-06 -8.03273e-06 2.22927e-06 1.31838e-06 -1.44271e-05 7.60914e-05 0.000113141 0.05 
1765 1 1 0.632959 0.362956 0.435387 0 0 0 -9.27688e-06 -1.87302e-06 -2.2438e-06 -8.5652e-07 5.42796e-06 -3.50439e-07 2.36759e-05 2.96242e-05 -4.24059e-05 0.05 
1070 1 1 0.322423 0.45 0.441171 0 0 0 -1.93083e-06 -4.66368e-07 3.26266e-06 0 0 0 5.54258e-05 7.85299e-05 -3.07211e-05 0.05 
1418 1 1 0.489938 0.45 0.423309 0 0 0 -2.74414e-06 -1.01252e-06 -1.98989e-06 0 0 0 1.86417e-05 1.61467e-05 9.28534e-07 0.05 
1766 1 1 0.074397 0.0500001 0.463502 0 0 0 -2.72427e-06 1.25666e-06 -4.02312e-06 0 0 0 -3.71591e-06 -0.000267698 5.94637e-05 0.05 
375 1 1 0.322283 0.050011 0.471375 0 0 0 -7.92792e-06 -4.68795e-07 8.82159e-07 0 0 0 -7.64354e-05 -0.000162656 -0.000177715 0.05 
719 1 1 0.453874 0.0500001 0.475653 0 0 0 -4.67782e-06 -1.26969e-06 -1.32524e-06 -7.79329e-06 -3.20857e-06 -2.25795e-06 -2.42376e-05 4.15104e-05 7.11668e-05 0.05 
723 1 1 0.562632 0.0521466 0.452158 0 0 0 -3.6735e-05 1.63627e-05 -2.87939e-05 0 0 0 0.00421024 0.00210371 0.0104777 0.05 
727 1 1 0.686527 0.0500098 0.480321 0 0 0 2.48273e-06 4.78453e-07 3.30002e-06 0 0 0 5.96609e-05 -6.08369e-05 -3.41838e-05 0.05 
82 1 1 0.78041 0.0500892 0.445882 0 0 0 -3.28591e-07 3.76617e-07 -3.41944e-06 0 0 0 1.73021e-05 0.000239291 -2.66534e-05 0.05 
1075 1 1 0.238649 0.101298 0.451631 0 0 0 6.16525e-06 -5.08904e-06 -1.61332e-05 0 0 0 0.000441726 0.000385439 -0.00016146 0.05 
1071 1 1 0.05 0.15336 0.479382 0 0 0 2.1167e-06 8.02286e-07 -1.50963e-06 7.1273e-05 -2.85413e-05 5.64382e-06 -9.28132e-06 3.51085e-05 4.09057e-05 0.05 
24 1 1 0.14408 0.134187 0.451426 0 0 0 7.01631e-07 5.63905e-07 1.51304e-06 0 0 0 -2.29957e-05 -0.000119442 7.12205e-05 0.05 
376 1 1 0.544615 0.151156 0.455287 0 0 0 -1.04749e-05 -3.65328e-07 7.1562e-07 0 0 0 -0.000192153 -5.45872e-05 -0.000154445 0.05 
79 1 1 0.784332 0.137045 0.499774 0 0 0 -1.21131e-06 -1.01574e-06 -1.1515e-06 0 0 0 -7.73128e-05 8.14344e-05 9.56359e-05 0.05 
1420 1 1 0.256975 0.199567 0.455486 0 0 0 -5.60609e-06 -2.66984e-06 8.26589e-06 0 0 0 -9.4395e-05 -6.34833e-05 -3.4956e-05 0.05 
1767 1 1 0.449781 0.166707 0.482939 0 0 0 -1.06802e-05 6.89941e-06 -3.9977e-06 0 0 0 -0.000198605 -0.00010477 0.000234205 0.05 
1076 1 1 0.634952 0.191366 0.470204 0 0 0 -7.94159e-06 -3.42323e-06 -5.4968e-06 0 0 0 -2.78211e-05 4.63892e-05 -2.40795e-05 0.05 
1825 1 1 0.728312 0.219549 0.492367 0 0 0 -6.36811e-06 -5.07576e-06 -2.34947e-06 0 0 0 -5.29952e-05 6.28857e-05 1.61424e-05 0.05 
1072 1 1 0.0500004 0.252988 0.470699 0 0 0 -1.07079e-06 9.08286e-07 3.00349e-06 0 0 0 1.27502e-05 -1.81469e-05 -1.77721e-06 0.05 
1764 1 1 0.391738 0.243073 0.453495 0 0 0 -1.15661e-05 -2.61944e-06 1.04382e-05 0 0 0 -0.00103516 0.000157166 0.000203523 0.05 
1768 1 1 0.487858 0.258928 0.476095 0 0 0 -4.23543e-06 8.57704e-06 7.47258e-07 0 0 0 3.51567e-05 -8.61603e-05 -9.34893e-05 0.05 
29 1 1 0.209317 0.287368 0.450912 0 0 0 -4.62574e-06 1.90306e-06 5.08716e-06 0 0 0 -6.21801e-06 8.38528e-06 -3.66758e-05 0.05 
1772 1 1 0.05 0.351029 0.490484 0 0 0 4.09375e-08 -1.05718e-06 2.76283e-06 0 0 0 -1.88615e-05 -3.29335e-05 -3.24833e-05 0.05 
378 1 1 0.370471 0.344732 0.453224 0 0 0 -2.10287e-06 4.86825e-06 5.69284e-06 0 0 0 -0.000145648 -0.000257015 7.98897e-05 0.05 
1421 1 1 0.555563 0.367734 0.49853 0 0 0 -6.87656e-06 2.39229e-06 1.22148e-06 -2.32408e-05 -3.00183e-05 7.37044e-06 -7.72626e-05 6.64005e-05 2.22647e-06 0.05 
784 1 1 0.712603 0.356335 0.495496 0 0 0 -8.49529e-06 -2.22132e-06 -2.71358e-06 -1.93549e-06 1.65393e-06 4.3407e-06 -0.000135834 -1.00108e-05 -2.60074e-05 0.05 
1130 1 1 0.812496 0.354355 0.499658 0 0 0 -8.7631e-06 -4.13961e-06 -2.61314e-06 4.24625e-06 -4.1988e-07 -1.89257e-06 2.58595e-05 2.68921e-05 -1.95742e-05 0.05 
1077 1 1 0.126178 0.425913 0.444687 0 0 0 -1.39479e-06 -8.09251e-07 2.13856e-06 9.89419e-06 -8.876e-07 -2.73561e-06 8.12323e-05 8.44371e-05 -3.56803e-05 0.05 
1422 1 1 0.22298 0.45 0.451706 0 0 0 -1.64693e-06 -2.59831e-07 3.00259e-06 0 0 0 -7.91834e-05 -8.31583e-05 3.41631e-05 0.05 
1770 1 1 0.41192 0.44908 0.485944 0 0 0 -6.03328e-07 -4.9297e-08 9.20418e-06 0 0 0 4.17682e-05 3.41921e-05 -2.80224e-05 0.05 
374 1 1 0.586142 0.45 0.4506 0 0 0 -3.56973e-06 -2.34078e-07 -1.08699e-06 2.23067e-05 8.49851e-06 6.0541e-06 2.81083e-05 -5.85503e-05 -7.98029e-05 0.05 
1074 1 1 0.68237 0.45 0.477805 0 0 0 -2.71232e-06 -5.26772e-07 -1.91243e-06 0 0 0 4.11689e-05 6.05617e-05 -5.76697e-05 0.05 
776 1 1 0.778605 0.446385 0.45042 0 0 0 4.66039e-06 0.000115198 -1.27016e-05 0 0 0 -0.00505829 0.00191342 0.00414228 0.05 